 Entering Link 1 = C:\G03W\l1.exe PID=     19388.
  
 Copyright (c) 1988,1990,1992,1993,1995,1998,2003,2004, Gaussian, Inc.
                  All Rights Reserved.
  
 This is the Gaussian(R) 03 program.  It is based on the
 the Gaussian(R) 98 system (copyright 1998, Gaussian, Inc.),
 the Gaussian(R) 94 system (copyright 1995, Gaussian, Inc.),
 the Gaussian 92(TM) system (copyright 1992, Gaussian, Inc.),
 the Gaussian 90(TM) system (copyright 1990, Gaussian, Inc.),
 the Gaussian 88(TM) system (copyright 1988, Gaussian, Inc.),
 the Gaussian 86(TM) system (copyright 1986, Carnegie Mellon
 University), and the Gaussian 82(TM) system (copyright 1983,
 Carnegie Mellon University). Gaussian is a federally registered
 trademark of Gaussian, Inc.
  
 This software contains proprietary and confidential information,
 including trade secrets, belonging to Gaussian, Inc.
  
 This software is provided under written license and may be
 used, copied, transmitted, or stored only in accord with that
 written license.
  
 The following legend is applicable only to US Government
 contracts under FAR:
  
                    RESTRICTED RIGHTS LEGEND
  
 Use, reproduction and disclosure by the US Government is
 subject to restrictions as set forth in subparagraphs (a)
 and (c) of the Commercial Computer Software - Restricted
 Rights clause in FAR 52.227-19.
  
 Gaussian, Inc.
 340 Quinnipiac St., Bldg. 40, Wallingford CT 06492
  
  
 ---------------------------------------------------------------
 Warning -- This program may not be used in any manner that
 competes with the business of Gaussian, Inc. or will provide
 assistance to any competitor of Gaussian, Inc.  The licensee
 of this program is prohibited from giving any competitor of
 Gaussian, Inc. access to this program.  By using this program,
 the user acknowledges that Gaussian, Inc. is engaged in the
 business of creating and licensing software in the field of
 computational chemistry and represents and warrants to the
 licensee that it is not a competitor of Gaussian, Inc. and that
 it will not use this program in any manner prohibited above.
 ---------------------------------------------------------------
  

 Cite this work as:
 Gaussian 03, Revision C.01,
 M. J. Frisch, G. W. Trucks, H. B. Schlegel, G. E. Scuseria, 
 M. A. Robb, J. R. Cheeseman, J. A. Montgomery, Jr., T. Vreven, 
 K. N. Kudin, J. C. Burant, J. M. Millam, S. S. Iyengar, J. Tomasi, 
 V. Barone, B. Mennucci, M. Cossi, G. Scalmani, N. Rega, 
 G. A. Petersson, H. Nakatsuji, M. Hada, M. Ehara, K. Toyota, 
 R. Fukuda, J. Hasegawa, M. Ishida, T. Nakajima, Y. Honda, O. Kitao, 
 H. Nakai, M. Klene, X. Li, J. E. Knox, H. P. Hratchian, J. B. Cross, 
 C. Adamo, J. Jaramillo, R. Gomperts, R. E. Stratmann, O. Yazyev, 
 A. J. Austin, R. Cammi, C. Pomelli, J. W. Ochterski, P. Y. Ayala, 
 K. Morokuma, G. A. Voth, P. Salvador, J. J. Dannenberg, 
 V. G. Zakrzewski, S. Dapprich, A. D. Daniels, M. C. Strain, 
 O. Farkas, D. K. Malick, A. D. Rabuck, K. Raghavachari, 
 J. B. Foresman, J. V. Ortiz, Q. Cui, A. G. Baboul, S. Clifford, 
 J. Cioslowski, B. B. Stefanov, G. Liu, A. Liashenko, P. Piskorz, 
 I. Komaromi, R. L. Martin, D. J. Fox, T. Keith, M. A. Al-Laham, 
 C. Y. Peng, A. Nanayakkara, M. Challacombe, P. M. W. Gill, 
 B. Johnson, W. Chen, M. W. Wong, C. Gonzalez, and J. A. Pople, 
 Gaussian, Inc., Wallingford CT, 2004.
 
 ******************************************
 Gaussian 03:  IA32W-G03RevC.01  3-Apr-2004
                16-Sep-2021 
 ******************************************
 Default route:  MaxDisk=2000MB
 -----------------------------------------------
 # B3LYP/6-31G(d) opt=z-matrix freq=noraman test
 -----------------------------------------------
 1/10=7,14=-1,18=40,26=3,38=1/1,3;
 2/17=6,18=5,29=3,40=1/2;
 3/5=1,6=6,7=1,11=2,16=1,25=1,30=1,74=-5/1,2,3;
 4//1;
 5/5=2,38=5/2;
 6/7=2,8=2,9=2,10=2,28=1/1;
 7/29=1/1,2,3,16;
 1/10=7,14=-1,18=40/3(1);
 99//99;
 2/29=3/2;
 3/5=1,6=6,7=1,11=2,16=1,25=1,30=1,74=-5/1,2,3;
 4/5=5,16=3/1;
 5/5=2,38=5/2;
 7//1,2,3,16;
 1/14=-1,18=40/3(-5);
 2/29=3/2;
 6/7=2,8=2,9=2,10=2,19=2,28=1/1;
 99/9=1/99;
 ----------
 3,4-boxmmc
 ----------
 Symbolic Z-matrix:
 Charge =  0 Multiplicity = 1
 H
 C                    1    B1
 C                    2    B2       1    A2
 H                    3    B3       2    A3       1    D3       0
 C                    3    B4       2    A4       1    D4       0
 C                    5    B5       3    A5       2    D5       0
 C                    6    B6       5    A6       3    D6       0
 H                    7    B7       6    A7       5    D7       0
 C                    7    B8       6    A8       5    D8       0
 C                    9    B9       7    A9       6    D9       0
 C                    10   B10      9    A10      7    D10      0
 C                    11   B11      10   A11      9    D11      0
 H                    12   B12      11   A12      10   D12      0
 H                    12   B13      11   A13      10   D13      0
 H                    12   B14      11   A14      10   D14      0
 N                    11   B15      10   A15      9    D15      0
 H                    11   B16      10   A16      9    D16      0
 C                    16   B17      11   A17      10   D17      0
 H                    16   B18      11   A18      10   D18      0
 H                    18   B19      16   A19      11   D19      0
 H                    18   B20      16   A20      11   D20      0
 H                    18   B21      16   A21      11   D21      0
 O                    10   B22      9    A22      7    D22      0
 C                    5    B23      3    A23      2    D23      0
 C                    6    B24      5    A24      3    D24      0
 H                    24   B25      5    A25      3    D25      0
 H                    24   B26      5    A26      3    D26      0
 H                    25   B27      6    A27      5    D27      0
 H                    25   B28      6    A28      5    D28      0
       Variables:
  B1                    1.0856                   
  B2                    1.40118                  
  A2                  117.32488                  
  B3                    1.08465                  
  A3                  121.29336                  
  D3                    0.33909                  
  B4                    1.37341                  
  A4                  117.47707                  
  D4                  180.46721                  
  B5                    1.3712                   
  A5                  122.02353                  
  D5                    0.06879                  
  B6                    1.3756                   
  A6                  122.07016                  
  D6                  359.90566                  
  B7                    1.0859                   
  A7                  120.55234                  
  D7                  179.95681                  
  B8                    1.40573                  
  A8                  117.87492                  
  D8                  359.97885                  
  B9                    1.49836                  
  A9                  117.56492                  
  D9                  180.09035                  
  B10                   1.5395                   
  A10                 119.83205                  
  D10                 176.96605                  
  B11                   1.5268                   
  A11                 109.09627                  
  D11                  86.76823                  
  B12                   1.09493                  
  A12                 111.22125                  
  D12                 298.64275                  
  B13                   1.0956                   
  A13                 111.03698                  
  D13                 178.76986                  
  B14                   1.0965                   
  A14                 111.54474                  
  D14                  58.11183                  
  B15                   1.48232                  
  A15                 110.06681                  
  D15                 204.8602                   
  B16                   1.09381                  
  A16                 111.21845                  
  D16                 325.30279                  
  B17                   1.45888                  
  A17                 111.83628                  
  D17                  75.69515                  
  B18                   1.02622                  
  A18                 106.93199                  
  D18                 317.64687                  
  B19                   1.09475                  
  A19                 111.02769                  
  D19                  62.10969                  
  B20                   1.09437                  
  A20                 112.2517                   
  D20                 299.77438                  
  B21                   1.09447                  
  A21                 109.23843                  
  D21                 180.35121                  
  B22                   1.23437                  
  A22                 118.9253                   
  D22                 356.08757                  
  B23                   1.50061                  
  A23                 144.30761                  
  D23                 179.91511                  
  B24                   1.50022                  
  A24                  93.72484                  
  D24                 179.8345                   
  B25                   1.09551                  
  A25                 116.31503                  
  D25                  65.04511                  
  B26                   1.09548                  
  A26                 116.32913                  
  D26                 295.37796                  
  B27                   1.09551                  
  A27                 116.3205                   
  D27                 244.92765                  
  B28                   1.09546                  
  A28                 116.3421                   
  D28                 115.24059                  
 

 GradGradGradGradGradGradGradGradGradGradGradGradGradGradGradGradGradGrad
 Berny optimization.
 Initialization pass.
                       ----------------------------
                       !    Initial Parameters    !
                       ! (Angstroms and Degrees)  !
 ----------------------                            ----------------------
 !      Name          Value   Derivative information (Atomic Units)     !
 ------------------------------------------------------------------------
 !       B1          1.0856   estimate D2E/DX2                          !
 !       B2          1.4012   estimate D2E/DX2                          !
 !       A2        117.3249   estimate D2E/DX2                          !
 !       B3          1.0847   estimate D2E/DX2                          !
 !       A3        121.2934   estimate D2E/DX2                          !
 !       D3          0.3391   estimate D2E/DX2                          !
 !       B4          1.3734   estimate D2E/DX2                          !
 !       A4        117.4771   estimate D2E/DX2                          !
 !       D4        180.4672   estimate D2E/DX2                          !
 !       B5          1.3712   estimate D2E/DX2                          !
 !       A5        122.0235   estimate D2E/DX2                          !
 !       D5          0.0688   estimate D2E/DX2                          !
 !       B6          1.3756   estimate D2E/DX2                          !
 !       A6        122.0702   estimate D2E/DX2                          !
 !       D6        359.9057   estimate D2E/DX2                          !
 !       B7          1.0859   estimate D2E/DX2                          !
 !       A7        120.5523   estimate D2E/DX2                          !
 !       D7        179.9568   estimate D2E/DX2                          !
 !       B8          1.4057   estimate D2E/DX2                          !
 !       A8        117.8749   estimate D2E/DX2                          !
 !       D8        359.9789   estimate D2E/DX2                          !
 !       B9          1.4984   estimate D2E/DX2                          !
 !       A9        117.5649   estimate D2E/DX2                          !
 !       D9        180.0904   estimate D2E/DX2                          !
 !       B10         1.5395   estimate D2E/DX2                          !
 !       A10       119.8321   estimate D2E/DX2                          !
 !       D10       176.9661   estimate D2E/DX2                          !
 !       B11         1.5268   estimate D2E/DX2                          !
 !       A11       109.0963   estimate D2E/DX2                          !
 !       D11        86.7682   estimate D2E/DX2                          !
 !       B12         1.0949   estimate D2E/DX2                          !
 !       A12       111.2213   estimate D2E/DX2                          !
 !       D12       298.6427   estimate D2E/DX2                          !
 !       B13         1.0956   estimate D2E/DX2                          !
 !       A13       111.037    estimate D2E/DX2                          !
 !       D13       178.7699   estimate D2E/DX2                          !
 !       B14         1.0965   estimate D2E/DX2                          !
 !       A14       111.5447   estimate D2E/DX2                          !
 !       D14        58.1118   estimate D2E/DX2                          !
 !       B15         1.4823   estimate D2E/DX2                          !
 !       A15       110.0668   estimate D2E/DX2                          !
 !       D15       204.8602   estimate D2E/DX2                          !
 !       B16         1.0938   estimate D2E/DX2                          !
 !       A16       111.2185   estimate D2E/DX2                          !
 !       D16       325.3028   estimate D2E/DX2                          !
 !       B17         1.4589   estimate D2E/DX2                          !
 !       A17       111.8363   estimate D2E/DX2                          !
 !       D17        75.6951   estimate D2E/DX2                          !
 !       B18         1.0262   estimate D2E/DX2                          !
 !       A18       106.932    estimate D2E/DX2                          !
 !       D18       317.6469   estimate D2E/DX2                          !
 !       B19         1.0948   estimate D2E/DX2                          !
 !       A19       111.0277   estimate D2E/DX2                          !
 !       D19        62.1097   estimate D2E/DX2                          !
 !       B20         1.0944   estimate D2E/DX2                          !
 !       A20       112.2517   estimate D2E/DX2                          !
 !       D20       299.7744   estimate D2E/DX2                          !
 !       B21         1.0945   estimate D2E/DX2                          !
 !       A21       109.2384   estimate D2E/DX2                          !
 !       D21       180.3512   estimate D2E/DX2                          !
 !       B22         1.2344   estimate D2E/DX2                          !
 !       A22       118.9253   estimate D2E/DX2                          !
 !       D22       356.0876   estimate D2E/DX2                          !
 !       B23         1.5006   estimate D2E/DX2                          !
 !       A23       144.3076   estimate D2E/DX2                          !
 !       D23       179.9151   estimate D2E/DX2                          !
 !       B24         1.5002   estimate D2E/DX2                          !
 !       A24        93.7248   estimate D2E/DX2                          !
 !       D24       179.8345   estimate D2E/DX2                          !
 !       B25         1.0955   estimate D2E/DX2                          !
 !       A25       116.315    estimate D2E/DX2                          !
 !       D25        65.0451   estimate D2E/DX2                          !
 !       B26         1.0955   estimate D2E/DX2                          !
 !       A26       116.3291   estimate D2E/DX2                          !
 !       D26       295.378    estimate D2E/DX2                          !
 !       B27         1.0955   estimate D2E/DX2                          !
 !       A27       116.3205   estimate D2E/DX2                          !
 !       D27       244.9277   estimate D2E/DX2                          !
 !       B28         1.0955   estimate D2E/DX2                          !
 !       A28       116.3421   estimate D2E/DX2                          !
 !       D28       115.2406   estimate D2E/DX2                          !
 ------------------------------------------------------------------------
 Trust Radius=3.00D-01 FncErr=1.00D-07 GrdErr=1.00D-06
 Number of steps in this run=  91 maximum allowed number of steps= 162.
 GradGradGradGradGradGradGradGradGradGradGradGradGradGradGradGradGradGrad

 ------------------------------------------------------------------------
                         Z-MATRIX (ANGSTROMS AND DEGREES)
 CD Cent Atom  N1     Length/X     N2    Alpha/Y     N3     Beta/Z      J
 ------------------------------------------------------------------------
   1   1  H 
   2   2  C     1   1.085600(  1)
   3   3  C     2   1.401180(  2)   1  117.325( 29)
   4   4  H     3   1.084650(  3)   2  121.293( 30)   1    0.339( 56)   0
   5   5  C     3   1.373410(  4)   2  117.477( 31)   1  180.467( 57)   0
   6   6  C     5   1.371200(  5)   3  122.024( 32)   2    0.069( 58)   0
   7   7  C     6   1.375600(  6)   5  122.070( 33)   3  359.906( 59)   0
   8   8  H     7   1.085900(  7)   6  120.552( 34)   5  179.957( 60)   0
   9   9  C     7   1.405730(  8)   6  117.875( 35)   5  359.979( 61)   0
  10  10  C     9   1.498360(  9)   7  117.565( 36)   6  180.090( 62)   0
  11  11  C    10   1.539500( 10)   9  119.832( 37)   7  176.966( 63)   0
  12  12  C    11   1.526800( 11)  10  109.096( 38)   9   86.768( 64)   0
  13  13  H    12   1.094930( 12)  11  111.221( 39)  10  298.643( 65)   0
  14  14  H    12   1.095600( 13)  11  111.037( 40)  10  178.770( 66)   0
  15  15  H    12   1.096500( 14)  11  111.545( 41)  10   58.112( 67)   0
  16  16  N    11   1.482320( 15)  10  110.067( 42)   9  204.860( 68)   0
  17  17  H    11   1.093810( 16)  10  111.218( 43)   9  325.303( 69)   0
  18  18  C    16   1.458880( 17)  11  111.836( 44)  10   75.695( 70)   0
  19  19  H    16   1.026220( 18)  11  106.932( 45)  10  317.647( 71)   0
  20  20  H    18   1.094750( 19)  16  111.028( 46)  11   62.110( 72)   0
  21  21  H    18   1.094370( 20)  16  112.252( 47)  11  299.774( 73)   0
  22  22  H    18   1.094470( 21)  16  109.238( 48)  11  180.351( 74)   0
  23  23  O    10   1.234370( 22)   9  118.925( 49)   7  356.088( 75)   0
  24  24  C     5   1.500610( 23)   3  144.308( 50)   2  179.915( 76)   0
  25  25  C     6   1.500220( 24)   5   93.725( 51)   3  179.835( 77)   0
  26  26  H    24   1.095510( 25)   5  116.315( 52)   3   65.045( 78)   0
  27  27  H    24   1.095480( 26)   5  116.329( 53)   3  295.378( 79)   0
  28  28  H    25   1.095510( 27)   6  116.321( 54)   5  244.928( 80)   0
  29  29  H    25   1.095460( 28)   6  116.342( 55)   5  115.241( 81)   0
 ------------------------------------------------------------------------
                         Z-Matrix orientation:                         
 ---------------------------------------------------------------------
 Center     Atomic     Atomic              Coordinates (Angstroms)
 Number     Number      Type              X           Y           Z
 ---------------------------------------------------------------------
    1          1             0        0.000000    0.000000    0.000000
    2          6             0        0.000000    0.000000    1.085600
    3          6             0        1.244834    0.000000    1.728791
    4          1             0        2.170810    0.005485    1.163987
    5          6             0        1.248500   -0.009936    3.102160
    6          6             0        0.087915   -0.020966    3.832304
    7          6             0       -1.151044   -0.020839    3.234595
    8          1             0       -2.054509   -0.030424    3.836956
    9          6             0       -1.203095   -0.008453    1.829884
   10          6             0       -2.556130   -0.006302    1.186164
   11          6             0       -2.674939    0.077735   -0.346442
   12          6             0       -2.595851   -1.330291   -0.931528
   13          1             0       -1.636476   -1.803346   -0.697668
   14          1             0       -2.699120   -1.309404   -2.022050
   15          1             0       -3.381825   -1.979128   -0.527092
   16          7             0       -3.988188    0.652259   -0.724030
   17          1             0       -1.884662    0.703508   -0.771050
   18          6             0       -4.030113    2.095184   -0.512986
   19          1             0       -4.690056    0.221462   -0.111721
   20          1             0       -3.291009    2.605382   -1.139006
   21          1             0       -3.859483    2.366074    0.533508
   22          1             0       -5.016911    2.472869   -0.798376
   23          8             0       -3.558118   -0.089063    1.902293
   24          6             0        2.127254   -0.016756    4.318538
   25          6             0        0.802654   -0.031316    5.151280
   26          1             0        2.745468    0.873832    4.476040
   27          1             0        2.754890   -0.903472    4.459550
   28          1             0        0.671256   -0.927199    5.767940
   29          1             0        0.663159    0.850077    5.786671
 ---------------------------------------------------------------------
                    Distance matrix (angstroms):
                    1          2          3          4          5
     1  H    0.000000
     2  C    1.085600   0.000000
     3  C    2.130336   1.401180   0.000000
     4  H    2.463191   2.172232   1.084650   0.000000
     5  C    3.343987   2.371786   1.373410   2.146487   0.000000
     6  C    3.833369   2.748190   2.400763   3.385124   1.371200
     7  C    3.433357   2.437933   2.829860   3.914438   2.403221
     8  H    4.352489   3.433933   3.915475   4.999937   3.383816
     9  C    2.189973   1.414732   2.450030   3.439018   2.762066
    10  C    2.817947   2.558115   3.839506   4.727006   4.259843
    11  C    2.698400   3.035142   4.435905   5.076209   5.224358
    12  C    3.062003   3.546396   4.857760   5.375550   5.726519
    13  H    2.533150   3.018303   4.176327   4.607934   5.096872
    14  H    3.617800   4.319407   5.598046   5.966237   6.597716
    15  H    3.953671   4.237271   5.514701   6.134345   6.203958
    16  N    4.105521   4.427849   5.816037   6.474270   6.519290
    17  H    2.154390   2.737522   4.066679   4.547357   5.032640
    18  C    4.571078   4.815297   6.102493   6.755037   6.735322
    19  H    4.696611   4.845539   6.217672   6.981802   6.756407
    20  H    4.349263   4.750540   5.965413   6.472612   6.740514
    21  H    4.558349   4.560561   5.751613   6.506482   6.191517
    22  H    5.649945   5.902020   7.191043   7.848706   7.786776
    23  O    4.035697   3.651728   4.806909   5.777079   4.954747
    24  C    4.814069   3.870062   2.736007   3.154930   1.500610
    25  C    5.213533   4.144272   3.451077   4.215651   2.097172
    26  H    5.323168   4.449299   3.250056   3.471880   2.215740
    27  H    5.319142   4.448508   3.248627   3.468153   2.215880
    28  H    5.880427   4.820228   4.183709   4.931019   2.877667
    29  H    5.886252   4.823119   4.186569   4.935134   2.879035
                    6          7          8          9         10
     6  C    0.000000
     7  C    1.375600   0.000000
     8  H    2.142450   1.085900   0.000000
     9  C    2.382551   1.405730   2.180305   0.000000
    10  C    3.740754   2.484058   2.697944   1.498360   0.000000
    11  C    5.010491   3.893045   4.230538   2.628716   1.539500
    12  C    5.622368   4.599860   4.972036   3.363394   2.497828
    13  H    5.164402   4.344613   4.886800   3.130172   2.761151
    14  H    6.610680   5.629321   6.031523   4.332200   3.465712
    15  H    5.905745   4.791823   4.960255   3.766398   2.740267
    16  N    6.150449   4.916620   5.000776   3.836112   2.476557
    17  H    5.060315   4.136190   4.669178   2.781417   2.187552
    18  C    6.349628   5.177929   5.229074   4.231590   3.078308
    19  H    6.200251   4.876592   4.754115   3.997698   2.507992
    20  H    6.559630   5.532167   5.765120   4.472787   3.573144
    21  H    5.671151   4.508754   4.462499   3.791486   2.784395
    22  H    7.329505   6.117872   6.043890   5.254512   4.017478
    23  O    4.125910   2.752033   2.450959   2.357514   1.234370
    24  C    2.096509   3.452853   4.209424   4.157487   5.634356
    25  C    1.500220   2.736920   3.144969   3.880107   5.196557
    26  H    2.877091   4.186219   4.926042   4.834431   6.301179
    27  H    2.878370   4.187586   4.927490   4.835478   6.302928
    28  H    2.215454   3.249632   3.458714   4.457082   5.679502
    29  H    2.215665   3.250065   3.458669   4.458267   5.679953
                   11         12         13         14         15
    11  C    0.000000
    12  C    1.526800   0.000000
    13  H    2.177207   1.094930   0.000000
    14  H    2.175408   1.095600   1.768383   0.000000
    15  H    2.182432   1.096500   1.762452   1.774688   0.000000
    16  N    1.482320   2.431493   3.400182   2.682289   2.707519
    17  H    1.093810   2.160528   2.520178   2.506024   3.081809
    18  C    2.436048   3.737133   4.578443   3.954748   4.125590
    19  H    2.033826   2.732346   3.710462   3.155429   2.593569
    20  H    2.719687   4.001976   4.729602   4.056556   4.626059
    21  H    2.722857   4.172075   4.882787   4.624549   4.498201
    22  H    3.380199   4.510353   5.451926   4.601643   4.750514
    23  O    2.421701   3.239930   3.659408   4.198521   3.083073
    24  C    6.695673   7.183056   6.520728   8.072663   7.594800
    25  C    6.506189   7.087858   6.580247   8.084096   7.317633
    26  H    7.298693   7.913889   7.289443   8.754156   8.409187
    27  H    7.317334   7.607650   6.833064   8.480693   7.980157
    28  H    7.042200   7.464540   6.920791   8.496439   7.560519
    29  H    7.025275   7.778775   7.373983   8.771796   8.014356
                   16         17         18         19         20
    16  N    0.000000
    17  H    2.104675   0.000000
    18  C    1.458880   2.570275   0.000000
    19  H    1.026220   2.921869   2.026666   0.000000
    20  H    2.114936   2.393810   1.094750   2.948851   0.000000
    21  H    2.129585   2.892389   1.094370   2.388626   1.782620
    22  H    2.092468   3.597550   1.094470   2.376376   1.764179
    23  O    2.762624   3.251981   3.290484   2.331087   4.071963
    24  C    7.954477   6.520595   8.106607   8.133860   8.125145
    25  C    7.611749   6.544894   7.743485   7.611370   7.954745
    26  H    8.510696   6.999934   8.502386   8.761288   8.424136
    27  H    8.646323   7.174051   8.930527   8.808475   8.955936
    28  H    8.145599   7.207657   8.407598   8.039497   8.711176
    29  H    8.003961   7.036801   7.953789   7.990188   8.165877
                   21         22         23         24         25
    21  H    0.000000
    22  H    1.767756   0.000000
    23  O    2.827029   3.998148   0.000000
    24  C    7.472975   9.133463   6.177939   0.000000
    25  C    6.986188   8.691185   5.438344   1.564684   0.000000
    26  H    7.835542   9.520027   6.876520   1.095510   2.247169
    27  H    8.357850   9.972279   6.859803   1.095480   2.247303
    28  H    7.666324   9.329106   5.790795   2.247133   1.095510
    29  H    7.095651   8.846440   5.812878   2.247306   1.095460
                   26         27         28         29
    26  H    0.000000
    27  H    1.777406   0.000000
    28  H    3.035635   2.460484   0.000000
    29  H    2.460554   3.035048   1.777393   0.000000
                           Interatomic angles:
       H1-C2-C3=117.3249       C2-C3-H4=121.2934       C2-C3-C5=117.4771
       H4-C3-C5=121.2294       C3-C5-C6=122.0235       C5-C6-C7=122.0702
       C6-C7-H8=120.5523       C6-C7-C9=117.8749       H8-C7-C9=121.5727
      C7-C9-C10=117.5649     C9-C10-C11=119.8321    C10-C11-C12=109.0963
    C11-C12-H13=111.2213    C11-C12-H14=111.037     H13-C12-H14=107.6631
    C11-C12-H15=111.5447    H13-C12-H15=107.0752    H14-C12-H15=108.1105
    C10-C11-N16=110.0668    C12-C11-N16=107.8009    C10-C11-H17=111.2185
    C12-C11-H17=109.9631    N16-C11-H17=108.6309    C11-N16-C18=111.8363
    C11-N16-H19=106.932     C18-N16-H19=108.0128    N16-C18-H20=111.0277
    N16-C18-H21=112.2517    H20-C18-H21=109.0382    N16-C18-H22=109.2384
    H20-C18-H22=107.3845    H21-C18-H22=107.7285     C9-C10-O23=118.9253
    C11-C10-O23=121.2367      C3-C5-C24=144.3076      C6-C5-C24= 93.6688
      C5-C6-C25= 93.7248      C7-C6-C25=144.2049     C5-C24-H26=116.315 
     C5-C24-H27=116.3291    H26-C24-H27=108.4334     C6-C25-H28=116.3205
     C6-C25-H29=116.3421    H28-C25-H29=108.4337
 Stoichiometry    C12H15NO
 Framework group  C1[X(C12H15NO)]
 Deg. of freedom    81
 Full point group                 C1      NOp   1
 Largest Abelian subgroup         C1      NOp   1
 Largest concise Abelian subgroup C1      NOp   1
                         Standard orientation:                         
 ---------------------------------------------------------------------
 Center     Atomic     Atomic              Coordinates (Angstroms)
 Number     Number      Type              X           Y           Z
 ---------------------------------------------------------------------
    1          1             0       -0.214563    2.036611    0.494996
    2          6             0        0.520182    1.257816    0.315679
    3          6             0        1.866489    1.582299    0.528925
    4          1             0        2.161430    2.570461    0.865094
    5          6             0        2.799476    0.602303    0.293553
    6          6             0        2.445190   -0.650954   -0.135419
    7          6             0        1.133955   -1.004394   -0.354549
    8          1             0        0.881235   -2.004080   -0.695048
    9          6             0        0.144152   -0.033182   -0.124085
   10          6             0       -1.281868   -0.426230   -0.362965
   11          6             0       -2.412807    0.573478   -0.060277
   12          6             0       -2.638511    1.457923   -1.284178
   13          1             0       -1.740379    2.035190   -1.527065
   14          1             0       -3.453828    2.168900   -1.110660
   15          1             0       -2.888171    0.862715   -2.170580
   16          7             0       -3.675286   -0.153983    0.212156
   17          1             0       -2.171808    1.192668    0.808598
   18          6             0       -3.678327   -0.756914    1.540613
   19          1             0       -3.740114   -0.909449   -0.479360
   20          1             0       -3.601869    0.008506    2.319563
   21          1             0       -2.866807   -1.479731    1.669511
   22          1             0       -4.623790   -1.286433    1.694154
   23          8             0       -1.523847   -1.548176   -0.817227
   24          6             0        4.266364    0.286482    0.311672
   25          6             0        3.861771   -1.142886   -0.179703
   26          1             0        4.754280    0.301435    1.292415
   27          1             0        4.891907    0.842779   -0.394943
   28          1             0        4.254497   -1.404313   -1.168422
   29          1             0        4.119359   -1.946418    0.518879
 ---------------------------------------------------------------------
 Rotational constants (GHZ):      1.7005874      0.3475856      0.3238437
 Standard basis: 6-31G(d) (6D, 7F)
 There are   240 symmetry adapted basis functions of A   symmetry.
 Integral buffers will be    262144 words long.
 Raffenetti 2 integral format.
 Two-electron integral symmetry is turned on.
   240 basis functions,   452 primitive gaussians,   240 cartesian basis functions
    51 alpha electrons       51 beta electrons
       nuclear repulsion energy       855.1513194338 Hartrees.
 NAtoms=   29 NActive=   29 NUniq=   29 SFac= 1.00D+00 NAtFMM=   60 Big=F
 One-electron integrals computed using PRISM.
 NBasis=   240 RedAO= T  NBF=   240
 NBsUse=   240 1.00D-06 NBFU=   240
 Harris functional with IExCor=  402 diagonalized for initial guess.
 ExpMin= 1.61D-01 ExpMax= 5.48D+03 ExpMxC= 8.25D+02 IAcc=1 IRadAn=         1 AccDes= 1.00D-06
 HarFok:  IExCor= 402 AccDes= 1.00D-06 IRadAn=         1 IDoV=1
 ScaDFX=  1.000000  1.000000  1.000000  1.000000
 Initial guess orbital symmetries:
       Occupied  (A) (A) (A) (A) (A) (A) (A) (A) (A) (A) (A) (A)
                 (A) (A) (A) (A) (A) (A) (A) (A) (A) (A) (A) (A)
                 (A) (A) (A) (A) (A) (A) (A) (A) (A) (A) (A) (A)
                 (A) (A) (A) (A) (A) (A) (A) (A) (A) (A) (A) (A)
                 (A) (A) (A)
       Virtual   (A) (A) (A) (A) (A) (A) (A) (A) (A) (A) (A) (A)
                 (A) (A) (A) (A) (A) (A) (A) (A) (A) (A) (A) (A)
                 (A) (A) (A) (A) (A) (A) (A) (A) (A) (A) (A) (A)
                 (A) (A) (A) (A) (A) (A) (A) (A) (A) (A) (A) (A)
                 (A) (A) (A) (A) (A) (A) (A) (A) (A) (A) (A) (A)
                 (A) (A) (A) (A) (A) (A) (A) (A) (A) (A) (A) (A)
                 (A) (A) (A) (A) (A) (A) (A) (A) (A) (A) (A) (A)
                 (A) (A) (A) (A) (A) (A) (A) (A) (A) (A) (A) (A)
                 (A) (A) (A) (A) (A) (A) (A) (A) (A) (A) (A) (A)
                 (A) (A) (A) (A) (A) (A) (A) (A) (A) (A) (A) (A)
                 (A) (A) (A) (A) (A) (A) (A) (A) (A) (A) (A) (A)
                 (A) (A) (A) (A) (A) (A) (A) (A) (A) (A) (A) (A)
                 (A) (A) (A) (A) (A) (A) (A) (A) (A) (A) (A) (A)
                 (A) (A) (A) (A) (A) (A) (A) (A) (A) (A) (A) (A)
                 (A) (A) (A) (A) (A) (A) (A) (A) (A) (A) (A) (A)
                 (A) (A) (A) (A) (A) (A) (A) (A) (A)
 The electronic state of the initial guess is 1-A.
 Requested convergence on RMS density matrix=1.00D-08 within 128 cycles.
 Requested convergence on MAX density matrix=1.00D-06.
 Requested convergence on             energy=1.00D-06.
 No special actions if energy rises.
 Integral accuracy reduced to 1.0D-05 until final iterations.
 Initial convergence to 1.0D-05 achieved.  Increase integral accuracy.
 SCF Done:  E(RB+HF-LYP) =  -596.238398615     A.U. after   16 cycles
             Convg  =    0.3520D-08             -V/T =  2.0092
             S**2   =   0.0000

 **********************************************************************

            Population analysis using the SCF density.

 **********************************************************************

 Orbital symmetries:
       Occupied  (A) (A) (A) (A) (A) (A) (A) (A) (A) (A) (A) (A)
                 (A) (A) (A) (A) (A) (A) (A) (A) (A) (A) (A) (A)
                 (A) (A) (A) (A) (A) (A) (A) (A) (A) (A) (A) (A)
                 (A) (A) (A) (A) (A) (A) (A) (A) (A) (A) (A) (A)
                 (A) (A) (A)
       Virtual   (A) (A) (A) (A) (A) (A) (A) (A) (A) (A) (A) (A)
                 (A) (A) (A) (A) (A) (A) (A) (A) (A) (A) (A) (A)
                 (A) (A) (A) (A) (A) (A) (A) (A) (A) (A) (A) (A)
                 (A) (A) (A) (A) (A) (A) (A) (A) (A) (A) (A) (A)
                 (A) (A) (A) (A) (A) (A) (A) (A) (A) (A) (A) (A)
                 (A) (A) (A) (A) (A) (A) (A) (A) (A) (A) (A) (A)
                 (A) (A) (A) (A) (A) (A) (A) (A) (A) (A) (A) (A)
                 (A) (A) (A) (A) (A) (A) (A) (A) (A) (A) (A) (A)
                 (A) (A) (A) (A) (A) (A) (A) (A) (A) (A) (A) (A)
                 (A) (A) (A) (A) (A) (A) (A) (A) (A) (A) (A) (A)
                 (A) (A) (A) (A) (A) (A) (A) (A) (A) (A) (A) (A)
                 (A) (A) (A) (A) (A) (A) (A) (A) (A) (A) (A) (A)
                 (A) (A) (A) (A) (A) (A) (A) (A) (A) (A) (A) (A)
                 (A) (A) (A) (A) (A) (A) (A) (A) (A) (A) (A) (A)
                 (A) (A) (A) (A) (A) (A) (A) (A) (A) (A) (A) (A)
                 (A) (A) (A) (A) (A) (A) (A) (A) (A)
 The electronic state is 1-A.
 Alpha  occ. eigenvalues --  -19.13687 -14.30805 -10.27046 -10.21799 -10.20549
 Alpha  occ. eigenvalues --  -10.20227 -10.19962 -10.19779 -10.19721 -10.19419
 Alpha  occ. eigenvalues --  -10.19289 -10.19097 -10.18825 -10.17850  -1.03081
 Alpha  occ. eigenvalues --   -0.89501  -0.89246  -0.82448  -0.76231  -0.75552
 Alpha  occ. eigenvalues --   -0.70658  -0.65667  -0.65257  -0.63272  -0.60176
 Alpha  occ. eigenvalues --   -0.58489  -0.53641  -0.52041  -0.47872  -0.47553
 Alpha  occ. eigenvalues --   -0.46510  -0.44540  -0.44473  -0.43783  -0.42586
 Alpha  occ. eigenvalues --   -0.41861  -0.40717  -0.39284  -0.37676  -0.37545
 Alpha  occ. eigenvalues --   -0.37112  -0.35628  -0.35519  -0.34955  -0.33991
 Alpha  occ. eigenvalues --   -0.33627  -0.31831  -0.25600  -0.25309  -0.25003
 Alpha  occ. eigenvalues --   -0.21377
 Alpha virt. eigenvalues --   -0.05534  -0.01038   0.04346   0.08974   0.10423
 Alpha virt. eigenvalues --    0.11256   0.12682   0.13174   0.13779   0.14253
 Alpha virt. eigenvalues --    0.15618   0.15811   0.16281   0.16805   0.17428
 Alpha virt. eigenvalues --    0.17556   0.18200   0.18560   0.18839   0.21228
 Alpha virt. eigenvalues --    0.23310   0.23835   0.24159   0.24835   0.26104
 Alpha virt. eigenvalues --    0.27784   0.29184   0.32174   0.34566   0.37839
 Alpha virt. eigenvalues --    0.38705   0.40680   0.47197   0.48694   0.50891
 Alpha virt. eigenvalues --    0.51253   0.52397   0.52935   0.53766   0.55768
 Alpha virt. eigenvalues --    0.55943   0.56926   0.57201   0.58372   0.58794
 Alpha virt. eigenvalues --    0.59454   0.60372   0.61144   0.62677   0.63387
 Alpha virt. eigenvalues --    0.65666   0.66587   0.67804   0.68769   0.70091
 Alpha virt. eigenvalues --    0.70665   0.73016   0.76934   0.77514   0.78706
 Alpha virt. eigenvalues --    0.79564   0.80437   0.80790   0.81700   0.83341
 Alpha virt. eigenvalues --    0.84241   0.84284   0.84910   0.85973   0.86403
 Alpha virt. eigenvalues --    0.86735   0.88755   0.89302   0.90613   0.91451
 Alpha virt. eigenvalues --    0.91750   0.94120   0.95560   0.95846   0.97791
 Alpha virt. eigenvalues --    0.98383   0.98760   0.99948   1.01301   1.03540
 Alpha virt. eigenvalues --    1.04982   1.05212   1.08056   1.10215   1.11217
 Alpha virt. eigenvalues --    1.12674   1.19535   1.21555   1.25392   1.25763
 Alpha virt. eigenvalues --    1.30743   1.32145   1.33361   1.34491   1.37450
 Alpha virt. eigenvalues --    1.39882   1.41848   1.42156   1.46145   1.47764
 Alpha virt. eigenvalues --    1.48351   1.52784   1.56452   1.58700   1.65063
 Alpha virt. eigenvalues --    1.68072   1.68468   1.70482   1.72927   1.73199
 Alpha virt. eigenvalues --    1.74876   1.78074   1.81381   1.83550   1.84867
 Alpha virt. eigenvalues --    1.87983   1.90369   1.90873   1.92494   1.94128
 Alpha virt. eigenvalues --    1.95721   1.97751   1.98311   1.99969   2.00424
 Alpha virt. eigenvalues --    2.01357   2.02847   2.03471   2.06184   2.07924
 Alpha virt. eigenvalues --    2.09443   2.10492   2.14609   2.16461   2.20480
 Alpha virt. eigenvalues --    2.21803   2.22288   2.24571   2.25496   2.26017
 Alpha virt. eigenvalues --    2.26561   2.28862   2.29716   2.30972   2.34052
 Alpha virt. eigenvalues --    2.34365   2.39269   2.40153   2.41827   2.43906
 Alpha virt. eigenvalues --    2.47616   2.49642   2.53243   2.57479   2.61971
 Alpha virt. eigenvalues --    2.62993   2.67286   2.69741   2.72812   2.75858
 Alpha virt. eigenvalues --    2.76512   2.82692   2.85451   2.88991   2.90412
 Alpha virt. eigenvalues --    2.95203   3.00994   3.11258   3.26026   3.45087
 Alpha virt. eigenvalues --    3.95139   4.04564   4.06984   4.09840   4.14942
 Alpha virt. eigenvalues --    4.23447   4.25011   4.27728   4.34606   4.38881
 Alpha virt. eigenvalues --    4.43640   4.53770   4.65451   4.85403
          Condensed to atoms (all electrons):
              1          2          3          4          5          6
     1  H    0.579922   0.352191  -0.040056  -0.004416   0.001536   0.000777
     2  C    0.352191   5.077116   0.462370  -0.043550  -0.010479  -0.041277
     3  C   -0.040056   0.462370   5.154480   0.351002   0.514738  -0.065893
     4  H   -0.004416  -0.043550   0.351002   0.596106  -0.038386   0.006073
     5  C    0.001536  -0.010479   0.514738  -0.038386   4.697807   0.581346
     6  C    0.000777  -0.041277  -0.065893   0.006073   0.581346   4.783625
     7  C    0.004865  -0.070794  -0.075294   0.000695  -0.068911   0.445708
     8  H   -0.000127   0.004819   0.000308   0.000023   0.005683  -0.043256
     9  C   -0.034228   0.489567  -0.010063   0.003099  -0.031740  -0.004999
    10  C   -0.009666  -0.037328   0.004584  -0.000106   0.000708   0.005182
    11  C    0.004922  -0.006313  -0.000025   0.000013  -0.000049   0.000095
    12  C   -0.000388  -0.002259   0.000010  -0.000002   0.000004   0.000002
    13  H    0.001701   0.002563   0.000039  -0.000002  -0.000006  -0.000008
    14  H    0.000117   0.000021  -0.000001   0.000000   0.000000   0.000000
    15  H   -0.000063  -0.000039   0.000003   0.000000   0.000000  -0.000001
    16  N    0.000004  -0.000051  -0.000004   0.000000   0.000000   0.000000
    17  H    0.002483   0.002164   0.000274  -0.000004  -0.000001  -0.000016
    18  C   -0.000012   0.000013   0.000000   0.000000   0.000000   0.000000
    19  H   -0.000004  -0.000024   0.000000   0.000000   0.000000  -0.000001
    20  H   -0.000008  -0.000021   0.000000   0.000000   0.000000   0.000000
    21  H   -0.000003  -0.000007   0.000002   0.000000   0.000000   0.000000
    22  H    0.000000   0.000000   0.000000   0.000000   0.000000   0.000000
    23  O    0.000020   0.004028  -0.000045   0.000000  -0.000022   0.001941
    24  C   -0.000162   0.007984  -0.109773  -0.004231   0.271353  -0.067751
    25  C    0.000029  -0.000591   0.037030  -0.000564  -0.068167   0.269517
    26  H    0.000001  -0.000094   0.000889   0.000603  -0.010198  -0.004660
    27  H    0.000001  -0.000079   0.000826   0.000601  -0.010199  -0.004766
    28  H    0.000000   0.000046  -0.000712   0.000011  -0.004941  -0.010182
    29  H    0.000000   0.000037  -0.000698   0.000011  -0.004900  -0.010044
              7          8          9         10         11         12
     1  H    0.004865  -0.000127  -0.034228  -0.009666   0.004922  -0.000388
     2  C   -0.070794   0.004819   0.489567  -0.037328  -0.006313  -0.002259
     3  C   -0.075294   0.000308  -0.010063   0.004584  -0.000025   0.000010
     4  H    0.000695   0.000023   0.003099  -0.000106   0.000013  -0.000002
     5  C   -0.068911   0.005683  -0.031740   0.000708  -0.000049   0.000004
     6  C    0.445708  -0.043256  -0.004999   0.005182   0.000095   0.000002
     7  C    5.296871   0.354524   0.432426  -0.025996   0.009588  -0.000274
     8  H    0.354524   0.559266  -0.043352  -0.008959   0.000545  -0.000013
     9  C    0.432426  -0.043352   5.062679   0.250473  -0.097851   0.002864
    10  C   -0.025996  -0.008959   0.250473   4.739911   0.276912  -0.042401
    11  C    0.009588   0.000545  -0.097851   0.276912   5.106359   0.353890
    12  C   -0.000274  -0.000013   0.002864  -0.042401   0.353890   5.133024
    13  H   -0.000058  -0.000001   0.000668   0.001941  -0.033812   0.354104
    14  H    0.000007   0.000000  -0.000221   0.004293  -0.024950   0.367704
    15  H   -0.000024  -0.000005   0.000368  -0.005635  -0.030381   0.373299
    16  N   -0.000095  -0.000002   0.006044  -0.051652   0.338361  -0.060187
    17  H   -0.000412  -0.000022  -0.000535  -0.039085   0.363680  -0.037324
    18  C    0.000001  -0.000002   0.000020   0.000693  -0.058339   0.006064
    19  H   -0.000051  -0.000011   0.001387  -0.008572  -0.047274  -0.000866
    20  H   -0.000001   0.000000   0.000069  -0.000953  -0.006514   0.000241
    21  H    0.000037   0.000006  -0.001423   0.008765  -0.007228  -0.000129
    22  H    0.000000   0.000000   0.000014  -0.000150   0.005493  -0.000223
    23  O    0.002255   0.014389  -0.095073   0.539409  -0.086123  -0.002777
    24  C    0.035945  -0.000517  -0.001147   0.000009   0.000000   0.000000
    25  C   -0.104162  -0.003603   0.005893  -0.000134   0.000001   0.000000
    26  H   -0.000705   0.000009   0.000053   0.000000   0.000000   0.000000
    27  H   -0.000711   0.000010   0.000045   0.000000   0.000000   0.000000
    28  H    0.000969   0.000556  -0.000084   0.000001   0.000000   0.000000
    29  H    0.001014   0.000537  -0.000065   0.000002   0.000000   0.000000
             13         14         15         16         17         18
     1  H    0.001701   0.000117  -0.000063   0.000004   0.002483  -0.000012
     2  C    0.002563   0.000021  -0.000039  -0.000051   0.002164   0.000013
     3  C    0.000039  -0.000001   0.000003  -0.000004   0.000274   0.000000
     4  H   -0.000002   0.000000   0.000000   0.000000  -0.000004   0.000000
     5  C   -0.000006   0.000000   0.000000   0.000000  -0.000001   0.000000
     6  C   -0.000008   0.000000  -0.000001   0.000000  -0.000016   0.000000
     7  C   -0.000058   0.000007  -0.000024  -0.000095  -0.000412   0.000001
     8  H   -0.000001   0.000000  -0.000005  -0.000002  -0.000022  -0.000002
     9  C    0.000668  -0.000221   0.000368   0.006044  -0.000535   0.000020
    10  C    0.001941   0.004293  -0.005635  -0.051652  -0.039085   0.000693
    11  C   -0.033812  -0.024950  -0.030381   0.338361   0.363680  -0.058339
    12  C    0.354104   0.367704   0.373299  -0.060187  -0.037324   0.006064
    13  H    0.586143  -0.027144  -0.029715   0.004768  -0.003587  -0.000208
    14  H   -0.027144   0.543217  -0.027193   0.002584  -0.004404  -0.000006
    15  H   -0.029715  -0.027193   0.552906  -0.004030   0.005355  -0.000020
    16  N    0.004768   0.002584  -0.004030   6.860015  -0.042690   0.315966
    17  H   -0.003587  -0.004404   0.005355  -0.042690   0.603209  -0.004403
    18  C   -0.000208  -0.000006  -0.000020   0.315966  -0.004403   4.964910
    19  H   -0.000244  -0.000604   0.004300   0.298656   0.006977  -0.037160
    20  H   -0.000015  -0.000036   0.000005  -0.039433   0.007019   0.381039
    21  H    0.000027   0.000026  -0.000005  -0.050471  -0.001097   0.360176
    22  H    0.000003  -0.000018   0.000006  -0.035057   0.000053   0.382697
    23  O    0.000053  -0.000028   0.002497  -0.013974   0.002507  -0.001568
    24  C    0.000000   0.000000   0.000000   0.000000   0.000000   0.000000
    25  C    0.000000   0.000000   0.000000   0.000000   0.000000   0.000000
    26  H    0.000000   0.000000   0.000000   0.000000   0.000000   0.000000
    27  H    0.000000   0.000000   0.000000   0.000000   0.000000   0.000000
    28  H    0.000000   0.000000   0.000000   0.000000   0.000000   0.000000
    29  H    0.000000   0.000000   0.000000   0.000000   0.000000   0.000000
             19         20         21         22         23         24
     1  H   -0.000004  -0.000008  -0.000003   0.000000   0.000020  -0.000162
     2  C   -0.000024  -0.000021  -0.000007   0.000000   0.004028   0.007984
     3  C    0.000000   0.000000   0.000002   0.000000  -0.000045  -0.109773
     4  H    0.000000   0.000000   0.000000   0.000000   0.000000  -0.004231
     5  C    0.000000   0.000000   0.000000   0.000000  -0.000022   0.271353
     6  C   -0.000001   0.000000   0.000000   0.000000   0.001941  -0.067751
     7  C   -0.000051  -0.000001   0.000037   0.000000   0.002255   0.035945
     8  H   -0.000011   0.000000   0.000006   0.000000   0.014389  -0.000517
     9  C    0.001387   0.000069  -0.001423   0.000014  -0.095073  -0.001147
    10  C   -0.008572  -0.000953   0.008765  -0.000150   0.539409   0.000009
    11  C   -0.047274  -0.006514  -0.007228   0.005493  -0.086123   0.000000
    12  C   -0.000866   0.000241  -0.000129  -0.000223  -0.002777   0.000000
    13  H   -0.000244  -0.000015   0.000027   0.000003   0.000053   0.000000
    14  H   -0.000604  -0.000036   0.000026  -0.000018  -0.000028   0.000000
    15  H    0.004300   0.000005  -0.000005   0.000006   0.002497   0.000000
    16  N    0.298656  -0.039433  -0.050471  -0.035057  -0.013974   0.000000
    17  H    0.006977   0.007019  -0.001097   0.000053   0.002507   0.000000
    18  C   -0.037160   0.381039   0.360176   0.382697  -0.001568   0.000000
    19  H    0.454405   0.005719  -0.004619  -0.002742   0.022770   0.000000
    20  H    0.005719   0.579982  -0.043901  -0.027451   0.000061   0.000000
    21  H   -0.004619  -0.043901   0.639260  -0.039014   0.004822   0.000000
    22  H   -0.002742  -0.027451  -0.039014   0.567168  -0.000021   0.000000
    23  O    0.022770   0.000061   0.004822  -0.000021   8.090340   0.000000
    24  C    0.000000   0.000000   0.000000   0.000000   0.000000   5.371953
    25  C    0.000000   0.000000   0.000000   0.000000   0.000003   0.214580
    26  H    0.000000   0.000000   0.000000   0.000000   0.000000   0.342391
    27  H    0.000000   0.000000   0.000000   0.000000   0.000000   0.342434
    28  H    0.000000   0.000000   0.000000   0.000000   0.000000  -0.019373
    29  H    0.000000   0.000000   0.000000   0.000000   0.000000  -0.019364
             25         26         27         28         29
     1  H    0.000029   0.000001   0.000001   0.000000   0.000000
     2  C   -0.000591  -0.000094  -0.000079   0.000046   0.000037
     3  C    0.037030   0.000889   0.000826  -0.000712  -0.000698
     4  H   -0.000564   0.000603   0.000601   0.000011   0.000011
     5  C   -0.068167  -0.010198  -0.010199  -0.004941  -0.004900
     6  C    0.269517  -0.004660  -0.004766  -0.010182  -0.010044
     7  C   -0.104162  -0.000705  -0.000711   0.000969   0.001014
     8  H   -0.003603   0.000009   0.000010   0.000556   0.000537
     9  C    0.005893   0.000053   0.000045  -0.000084  -0.000065
    10  C   -0.000134   0.000000   0.000000   0.000001   0.000002
    11  C    0.000001   0.000000   0.000000   0.000000   0.000000
    12  C    0.000000   0.000000   0.000000   0.000000   0.000000
    13  H    0.000000   0.000000   0.000000   0.000000   0.000000
    14  H    0.000000   0.000000   0.000000   0.000000   0.000000
    15  H    0.000000   0.000000   0.000000   0.000000   0.000000
    16  N    0.000000   0.000000   0.000000   0.000000   0.000000
    17  H    0.000000   0.000000   0.000000   0.000000   0.000000
    18  C    0.000000   0.000000   0.000000   0.000000   0.000000
    19  H    0.000000   0.000000   0.000000   0.000000   0.000000
    20  H    0.000000   0.000000   0.000000   0.000000   0.000000
    21  H    0.000000   0.000000   0.000000   0.000000   0.000000
    22  H    0.000000   0.000000   0.000000   0.000000   0.000000
    23  O    0.000003   0.000000   0.000000   0.000000   0.000000
    24  C    0.214580   0.342391   0.342434  -0.019373  -0.019364
    25  C    5.365890  -0.019482  -0.019337   0.342998   0.342572
    26  H   -0.019482   0.567512  -0.034431   0.002123  -0.002861
    27  H   -0.019337  -0.034431   0.567466  -0.002853   0.002116
    28  H    0.342998   0.002123  -0.002853   0.567458  -0.034762
    29  H    0.342572  -0.002861   0.002116  -0.034762   0.568101
 Mulliken atomic charges:
              1
     1  H    0.140563
     2  C   -0.190011
     3  C   -0.223995
     4  H    0.133026
     5  C    0.174825
     6  C    0.158587
     7  C   -0.237419
     8  H    0.159195
     9  C    0.065115
    10  C    0.397751
    11  C   -0.060998
    12  C   -0.444363
    13  H    0.142789
    14  H    0.166635
    15  H    0.158371
    16  N   -0.528753
    17  H    0.139858
    18  C   -0.309862
    19  H    0.307958
    20  H    0.144199
    21  H    0.134778
    22  H    0.149243
    23  O   -0.485464
    24  C   -0.364330
    25  C   -0.362474
    26  H    0.158850
    27  H    0.158878
    28  H    0.158745
    29  H    0.158304
 Sum of Mulliken charges=   0.00000
 Atomic charges with hydrogens summed into heavy atoms:
              1
     1  H    0.000000
     2  C   -0.049448
     3  C   -0.090970
     4  H    0.000000
     5  C    0.174825
     6  C    0.158587
     7  C   -0.078223
     8  H    0.000000
     9  C    0.065115
    10  C    0.397751
    11  C    0.078860
    12  C    0.023433
    13  H    0.000000
    14  H    0.000000
    15  H    0.000000
    16  N   -0.220795
    17  H    0.000000
    18  C    0.118358
    19  H    0.000000
    20  H    0.000000
    21  H    0.000000
    22  H    0.000000
    23  O   -0.485464
    24  C   -0.046602
    25  C   -0.045426
    26  H    0.000000
    27  H    0.000000
    28  H    0.000000
    29  H    0.000000
 Sum of Mulliken charges=   0.00000
 Electronic spatial extent (au):  <R**2>=  3553.5014
 Charge=     0.0000 electrons
 Dipole moment (field-independent basis, Debye):
    X=     2.8548    Y=     1.5357    Z=     0.8978  Tot=     3.3637
 Quadrupole moment (field-independent basis, Debye-Ang):
   XX=   -80.5887   YY=   -81.9010   ZZ=   -82.8590
   XY=    -1.1628   XZ=    -0.9119   YZ=    -0.5706
 Traceless Quadrupole moment (field-independent basis, Debye-Ang):
   XX=     1.1942   YY=    -0.1181   ZZ=    -1.0761
   XY=    -1.1628   XZ=    -0.9119   YZ=    -0.5706
 Octapole moment (field-independent basis, Debye-Ang**2):
  XXX=    50.8621  YYY=     3.1757  ZZZ=    -2.9760  XYY=     1.5192
  XXY=   -13.8141  XXZ=     1.6391  XZZ=    -7.9597  YZZ=    -1.4777
  YYZ=     4.7684  XYZ=     4.9604
 Hexadecapole moment (field-independent basis, Debye-Ang**3):
 XXXX= -3804.1776 YYYY=  -631.1802 ZZZZ=  -368.6655 XXXY=    75.1871
 XXXZ=     4.0878 YYYX=    -0.9877 YYYZ=     8.8892 ZZZX=     1.4099
 ZZZY=     6.0656 XXYY=  -710.0142 XXZZ=  -658.6673 YYZZ=  -171.2641
 XXYZ=    -4.6567 YYXZ=    -0.9671 ZZXY=    -1.3253
 N-N= 8.551513194338D+02 E-N=-3.094440539305D+03  KE= 5.907853890301D+02
 ***** Axes restored to original set *****
 -------------------------------------------------------------------
 Center     Atomic                   Forces (Hartrees/Bohr)
 Number     Number              X              Y              Z
 -------------------------------------------------------------------
    1          1          -0.003306521    0.000211731    0.000486936
    2          6           0.001953820    0.000457635    0.004131029
    3          6           0.005643391   -0.000195678   -0.013072553
    4          1           0.000276032   -0.000011980   -0.003854338
    5          6           0.011271178    0.000177534   -0.008992396
    6          6          -0.018002831   -0.000121320    0.001066302
    7          6          -0.007282278   -0.000440643    0.011218200
    8          1          -0.003480305    0.000016008   -0.005550745
    9          6           0.001241776   -0.000433660   -0.006166939
   10          6           0.002486279   -0.000061464    0.016743812
   11          6          -0.027525999   -0.000243722    0.000756537
   12          6           0.007678840   -0.009803402   -0.003208257
   13          1           0.001047117   -0.001410525    0.000633740
   14          1          -0.001455165    0.002724961    0.001469668
   15          1          -0.000855921    0.002384693    0.000543257
   16          7           0.009992245   -0.001378862   -0.004467096
   17          1          -0.000798842    0.001016473    0.000755265
   18          6          -0.006420693   -0.000224690    0.001838665
   19          1           0.004845149    0.001412711   -0.002320573
   20          1           0.001319572   -0.001548471   -0.000777500
   21          1           0.001936916    0.005988504    0.004296976
   22          1          -0.000764182    0.000250964   -0.000496294
   23          8           0.007388527    0.001172778   -0.016142267
   24          6           0.012666641   -0.000034530    0.007308150
   25          6           0.000778057    0.000043210    0.015605958
   26          1           0.001072725    0.000080344   -0.001265717
   27          1           0.001122184   -0.000039899   -0.001316124
   28          1          -0.001431259    0.000017403    0.000340696
   29          1          -0.001396453   -0.000006103    0.000435611
 -------------------------------------------------------------------
 Cartesian Forces:  Max     0.027525999 RMS     0.006181971
 ------------------------------------------------------------------------
           Internal Coordinate Forces (Hartree/Bohr or radian)
 Cent Atom N1     Length/X     N2     Alpha/Y      N3      Beta/Z       J
 ------------------------------------------------------------------------
   1  H 
   2  C     1  -0.000487(   1)
   3  C     2  -0.000918(   2)  1   0.006819(  29)
   4  H     3   0.002243(   3)  2  -0.006450(  30)  1  -0.000058(  56)  0
   5  C     3   0.012300(   4)  2  -0.025761(  31)  1  -0.000409(  57)  0
   6  C     5   0.034815(   5)  3  -0.043790(  32)  2   0.001387(  58)  0
   7  C     6   0.009969(   6)  5  -0.007409(  33)  3   0.002215(  59)  0
   8  H     7  -0.000184(   7)  6   0.013439(  34)  5  -0.000036(  60)  0
   9  C     7   0.006531(   8)  6  -0.003965(  35)  5   0.001962(  61)  0
  10  C     9   0.001178(   9)  7   0.003019(  36)  6   0.000929(  62)  0
  11  C    10   0.001775(  10)  9   0.017217(  37)  7   0.001875(  63)  0
  12  C    11   0.006177(  11) 10  -0.003051(  38)  9  -0.009504(  64)  0
  13  H    12   0.001662(  12) 11   0.001133(  39) 10   0.001257(  65)  0
  14  H    12  -0.001274(  13) 11  -0.005977(  40) 10  -0.002554(  66)  0
  15  H    12  -0.000597(  14) 11  -0.004973(  41) 10   0.001490(  67)  0
  16  N    11  -0.007430(  15) 10   0.009054(  42)  9   0.012379(  68)  0
  17  H    11  -0.000289(  16) 10  -0.001176(  43)  9  -0.002610(  69)  0
  18  C    16   0.005234(  17) 11   0.007681(  44) 10  -0.001059(  70)  0
  19  H    16  -0.005291(  18) 11  -0.003269(  45) 10   0.000227(  71)  0
  20  H    18   0.000614(  19) 16  -0.004216(  46) 11  -0.000893(  72)  0
  21  H    18   0.005893(  20) 16   0.009513(  47) 11   0.002831(  73)  0
  22  H    18   0.000905(  21) 16  -0.000219(  48) 11  -0.000490(  74)  0
  23  O    10  -0.015441(  22)  9   0.020610(  49)  7  -0.000419(  75)  0
  24  C     5   0.012534(  23)  3  -0.029972(  50)  2   0.000106(  76)  0
  25  C     6   0.013426(  24)  5   0.030379(  51)  3   0.000480(  77)  0
  26  H    24   0.000489(  25)  5  -0.001420(  52)  3  -0.002657(  78)  0
  27  H    24   0.000506(  26)  5  -0.001464(  53)  3   0.002775(  79)  0
  28  H    25   0.000349(  27)  6  -0.001241(  54)  5  -0.002408(  80)  0
  29  H    25   0.000426(  28)  6  -0.001088(  55)  5   0.002406(  81)  0
 ------------------------------------------------------------------------
 Internal  Forces:  Max     0.043789503 RMS     0.010187368

 GradGradGradGradGradGradGradGradGradGradGradGradGradGradGradGradGradGrad
 Berny optimization.
 Search for a local minimum.
 Step number   1 out of a maximum of  91
 All quantities printed in internal units (Hartrees-Bohrs-Radians)
 Second derivative matrix not updated -- first step.
     Eigenvalues ---    0.00448   0.01145   0.01435   0.01576   0.01686
     Eigenvalues ---    0.02578   0.03918   0.04478   0.06550   0.08035
     Eigenvalues ---    0.09967   0.10380   0.13217   0.13245   0.13294
     Eigenvalues ---    0.13780   0.15904   0.16290   0.17261   0.17269
     Eigenvalues ---    0.18625   0.18690   0.19909   0.21284   0.22043
     Eigenvalues ---    0.23550   0.24983   0.25000   0.27965   0.28563
     Eigenvalues ---    0.29565   0.29721   0.32347   0.32550   0.33889
     Eigenvalues ---    0.34072   0.34173   0.34184   0.34184   0.34187
     Eigenvalues ---    0.34189   0.34249   0.34269   0.34301   0.34305
     Eigenvalues ---    0.34312   0.34363   0.34376   0.34396   0.35291
     Eigenvalues ---    0.35326   0.35438   0.36905   0.37105   0.38730
     Eigenvalues ---    0.38796   0.39206   0.39394   0.39563   0.40798
     Eigenvalues ---    0.40856   0.41457   0.42477   0.42633   0.42877
     Eigenvalues ---    0.43360   0.45668   0.46163   0.49905   0.50667
     Eigenvalues ---    0.54738   0.57072   0.63258   0.74994   0.89290
     Eigenvalues ---    0.95199   0.95631   2.07932   2.98460   6.93850
     Eigenvalues ---   25.22511
 RFO step:  Lambda=-8.95678732D-03.
 Linear search not attempted -- first point.
 Variable       Old X    -DE/DX   Delta X   Delta X   Delta X     New X
                                 (Linear)    (Quad)   (Total)
    B1        2.05149  -0.00049   0.00000  -0.00134  -0.00134   2.05014
    B2        2.64785  -0.00092   0.00000   0.00096   0.00096   2.64880
    A2        2.04771   0.00682   0.00000   0.00947   0.00947   2.05718
    B3        2.04969   0.00224   0.00000   0.00617   0.00617   2.05586
    A3        2.11697  -0.00645   0.00000  -0.00884  -0.00884   2.10813
    D3        0.00592  -0.00006   0.00000  -0.00375  -0.00375   0.00217
    B4        2.59537   0.01230   0.00000   0.02790   0.02790   2.62327
    A4        2.05036  -0.02576   0.00000  -0.02213  -0.02213   2.02823
    D4        3.14975  -0.00041   0.00000  -0.00645  -0.00645   3.14329
    B5        2.59119   0.03482   0.00000   0.04837   0.04837   2.63957
    A5        2.12971  -0.04379   0.00000   0.00094   0.00094   2.13066
    D5        0.00120   0.00139   0.00000   0.00270   0.00270   0.00390
    B6        2.59951   0.00997   0.00000   0.01702   0.01702   2.61653
    A6        2.13053  -0.00741   0.00000   0.00392   0.00392   2.13445
    D6        6.28154   0.00222   0.00000   0.00098   0.00098   6.28252
    B7        2.05205  -0.00018   0.00000  -0.00051  -0.00051   2.05155
    A7        2.10404   0.01344   0.00000   0.04923   0.04923   2.15327
    D7        3.14084  -0.00004   0.00000  -0.00062  -0.00062   3.14022
    B8        2.65644   0.00653   0.00000   0.00992   0.00992   2.66637
    A8        2.05731  -0.00397   0.00000  -0.01722  -0.01722   2.04008
    D8        6.28282   0.00196   0.00000  -0.00173  -0.00173   6.28109
    B9        2.83149   0.00118   0.00000   0.00352   0.00352   2.83501
    A9        2.05189   0.00302   0.00000   0.00035   0.00035   2.05224
    D9        3.14317   0.00093   0.00000   0.00410   0.00410   3.14727
   B10        2.90923   0.00177   0.00000   0.00602   0.00602   2.91526
   A10        2.09146   0.01722   0.00000   0.01830   0.01830   2.10977
   D10        3.08864   0.00187   0.00000   0.03697   0.03697   3.12561
   B11        2.88523   0.00618   0.00000   0.02018   0.02018   2.90541
   A11        1.90409  -0.00305   0.00000   0.00033   0.00033   1.90442
   D11        1.51439  -0.00950   0.00000  -0.02886  -0.02886   1.48553
   B12        2.06912   0.00166   0.00000   0.00473   0.00473   2.07385
   A12        1.94118   0.00113   0.00000   0.02090   0.02090   1.96208
   D12        5.21230   0.00126   0.00000   0.02699   0.02699   5.23929
   B13        2.07038  -0.00127   0.00000  -0.00363  -0.00363   2.06675
   A13        1.93796  -0.00598   0.00000  -0.02507  -0.02507   1.91289
   D13        3.12012  -0.00255   0.00000   0.00641   0.00641   3.12653
   B14        2.07208  -0.00060   0.00000  -0.00171  -0.00171   2.07038
   A14        1.94682  -0.00497   0.00000  -0.02350  -0.02350   1.92332
   D14        1.01424   0.00149   0.00000   0.03774   0.03774   1.05198
   B15        2.80118  -0.00743   0.00000  -0.02111  -0.02111   2.78007
   A15        1.92103   0.00905   0.00000   0.03826   0.03826   1.95929
   D15        3.57548   0.01238   0.00000   0.03638   0.03638   3.61186
   B16        2.06700  -0.00029   0.00000  -0.00082  -0.00082   2.06618
   A16        1.94113  -0.00118   0.00000  -0.02735  -0.02735   1.91378
   D16        5.67760  -0.00261   0.00000   0.00234   0.00234   5.67995
   B17        2.75688   0.00523   0.00000   0.01377   0.01377   2.77066
   A17        1.95191   0.00768   0.00000   0.02796   0.02796   1.97987
   D17        1.32113  -0.00106   0.00000  -0.03426  -0.03426   1.28686
   B18        1.93927  -0.00529   0.00000  -0.01196  -0.01196   1.92732
   A18        1.86632  -0.00327   0.00000  -0.02296  -0.02296   1.84336
   D18        5.54398   0.00023   0.00000  -0.02945  -0.02945   5.51453
   B19        2.06878   0.00061   0.00000   0.00175   0.00175   2.07052
   A19        1.93780  -0.00422   0.00000  -0.03340  -0.03340   1.90440
   D19        1.08402  -0.00089   0.00000   0.02801   0.02801   1.11203
   B20        2.06806   0.00589   0.00000   0.01674   0.01674   2.08480
   A20        1.95916   0.00951   0.00000   0.04908   0.04908   2.00824
   D20        5.23205   0.00283   0.00000   0.03596   0.03596   5.26801
   B21        2.06825   0.00091   0.00000   0.00257   0.00257   2.07082
   A21        1.90657  -0.00022   0.00000  -0.00169  -0.00169   1.90488
   D21        3.14772  -0.00049   0.00000   0.00463   0.00463   3.15235
   B22        2.33262  -0.01544   0.00000  -0.01712  -0.01712   2.31550
   A22        2.07564   0.02061   0.00000   0.03140   0.03140   2.10704
   D22        6.21490  -0.00042   0.00000   0.01878   0.01878   6.23368
   B23        2.83574   0.01253   0.00000   0.03576   0.03576   2.87150
   A23        2.51864  -0.02997   0.00000   0.00110   0.00110   2.51974
   D23        3.14011   0.00011   0.00000   0.00227   0.00227   3.14238
   B24        2.83500   0.01343   0.00000   0.03830   0.03830   2.87330
   A24        1.63581   0.03038   0.00000  -0.00275  -0.00275   1.63306
   D24        3.13870   0.00048   0.00000   0.00153   0.00153   3.14024
   B25        2.07021   0.00049   0.00000   0.00139   0.00139   2.07161
   A25        2.03008  -0.00142   0.00000  -0.00910  -0.00910   2.02098
   D25        1.13525  -0.00266   0.00000  -0.01423  -0.01423   1.12102
   B26        2.07016   0.00051   0.00000   0.00144   0.00144   2.07160
   A26        2.03033  -0.00146   0.00000  -0.00912  -0.00912   2.02121
   D26        5.15532   0.00278   0.00000   0.01281   0.01281   5.16813
   B27        2.07021   0.00035   0.00000   0.00100   0.00100   2.07121
   A27        2.03018  -0.00124   0.00000  -0.00799  -0.00799   2.02218
   D27        4.27479  -0.00241   0.00000  -0.01291  -0.01291   4.26188
   B28        2.07012   0.00043   0.00000   0.00121   0.00121   2.07133
   A28        2.03055  -0.00109   0.00000  -0.00697  -0.00697   2.02358
   D28        2.01133   0.00241   0.00000   0.01008   0.01008   2.02141
         Item               Value     Threshold  Converged?
 Maximum Force            0.043790     0.000450     NO 
 RMS     Force            0.010187     0.000300     NO 
 Maximum Displacement     0.049231     0.001800     NO 
 RMS     Displacement     0.020113     0.001200     NO 
 Predicted change in Energy=-4.625141D-03
 GradGradGradGradGradGradGradGradGradGradGradGradGradGradGradGradGradGrad

 ------------------------------------------------------------------------
                         Z-MATRIX (ANGSTROMS AND DEGREES)
 CD Cent Atom  N1     Length/X     N2    Alpha/Y     N3     Beta/Z      J
 ------------------------------------------------------------------------
   1   1  H 
   2   2  C     1   1.084889(  1)
   3   3  C     2   1.401687(  2)   1  117.868( 29)
   4   4  H     3   1.087916(  3)   2  120.787( 30)   1    0.124( 56)   0
   5   5  C     3   1.388175(  4)   2  116.209( 31)   1  180.098( 57)   0
   6   6  C     5   1.396798(  5)   3  122.078( 32)   2    0.224( 58)   0
   7   7  C     6   1.384609(  6)   5  122.295( 33)   3  359.962( 59)   0
   8   8  H     7   1.085632(  7)   6  123.373( 34)   5  179.921( 60)   0
   9   9  C     7   1.410981(  8)   6  116.888( 35)   5  359.880( 61)   0
  10  10  C     9   1.500224(  9)   7  117.585( 36)   6  180.325( 62)   0
  11  11  C    10   1.542688( 10)   9  120.881( 37)   7  179.084( 63)   0
  12  12  C    11   1.537476( 11)  10  109.115( 38)   9   85.115( 64)   0
  13  13  H    12   1.097433( 12)  11  112.419( 39)  10  300.189( 65)   0
  14  14  H    12   1.093678( 13)  11  109.600( 40)  10  179.137( 66)   0
  15  15  H    12   1.095596( 14)  11  110.198( 41)  10   60.274( 67)   0
  16  16  N    11   1.471150( 15)  10  112.259( 42)   9  206.944( 68)   0
  17  17  H    11   1.093377( 16)  10  109.651( 43)   9  325.437( 69)   0
  18  18  C    16   1.466168( 17)  11  113.438( 44)  10   73.732( 70)   0
  19  19  H    16   1.019893( 18)  11  105.617( 45)  10  315.959( 71)   0
  20  20  H    18   1.095674( 19)  16  109.114( 46)  11   63.715( 72)   0
  21  21  H    18   1.103228( 20)  16  115.064( 47)  11  301.835( 73)   0
  22  22  H    18   1.095831( 21)  16  109.142( 48)  11  180.616( 74)   0
  23  23  O    10   1.225310( 22)   9  120.725( 49)   7  357.163( 75)   0
  24  24  C     5   1.519534( 23)   3  144.370( 50)   2  180.045( 76)   0
  25  25  C     6   1.520487( 24)   5   93.567( 51)   3  179.922( 77)   0
  26  26  H    24   1.096247( 25)   5  115.793( 52)   3   64.230( 78)   0
  27  27  H    24   1.096243( 26)   5  115.807( 53)   3  296.112( 79)   0
  28  28  H    25   1.096037( 27)   6  115.862( 54)   5  244.188( 80)   0
  29  29  H    25   1.096102( 28)   6  115.943( 55)   5  115.818( 81)   0
 ------------------------------------------------------------------------
                         Z-Matrix orientation:                         
 ---------------------------------------------------------------------
 Center     Atomic     Atomic              Coordinates (Angstroms)
 Number     Number      Type              X           Y           Z
 ---------------------------------------------------------------------
    1          1             0        0.000000    0.000000    0.000000
    2          6             0        0.000000    0.000000    1.084889
    3          6             0        1.239134    0.000000    1.740078
    4          1             0        2.168262    0.002029    1.174147
    5          6             0        1.198958   -0.002119    3.127670
    6          6             0       -0.005549   -0.008763    3.834892
    7          6             0       -1.236080   -0.012880    3.200133
    8          1             0       -2.182431   -0.019297    3.732086
    9          6             0       -1.226293   -0.007425    1.789197
   10          6             0       -2.551129   -0.004230    1.085299
   11          6             0       -2.629208    0.022914   -0.455173
   12          6             0       -2.520802   -1.414385   -0.990198
   13          1             0       -1.579468   -1.898748   -0.700988
   14          1             0       -2.590724   -1.405843   -2.081605
   15          1             0       -3.342327   -2.025877   -0.600961
   16          7             0       -3.873954    0.639786   -0.939280
   17          1             0       -1.805142    0.620250   -0.854645
   18          6             0       -3.901129    2.097475   -0.784192
   19          1             0       -4.616816    0.251590   -0.358211
   20          1             0       -3.112807    2.538974   -1.403972
   21          1             0       -3.771702    2.459962    0.249715
   22          1             0       -4.858622    2.480477   -1.154816
   23          8             0       -3.597596   -0.058442    1.720400
   24          6             0        2.048033   -0.002642    4.387851
   25          6             0        0.681230   -0.009482    5.191437
   26          1             0        2.669044    0.886972    4.544979
   27          1             0        2.676330   -0.888058    4.539607
   28          1             0        0.517610   -0.899590    5.809686
   29          1             0        0.511278    0.875511    5.815411
 ---------------------------------------------------------------------
                    Distance matrix (angstroms):
                    1          2          3          4          5
     1  H    0.000000
     2  C    1.084889   0.000000
     3  C    2.136194   1.401687   0.000000
     4  H    2.465763   2.170099   1.087916   0.000000
     5  C    3.349601   2.368641   1.388175   2.180785   0.000000
     6  C    3.834906   2.750023   2.436710   3.435860   1.396798
     7  C    3.430585   2.449963   2.873780   3.961615   2.436140
     8  H    4.323407   3.430894   3.959239   5.046984   3.435026
     9  C    2.169119   1.414178   2.465928   3.449838   2.770087
    10  C    2.772391   2.551133   3.846407   4.720232   4.270180
    11  C    2.668415   3.047138   4.447889   5.066640   5.243305
    12  C    3.055392   3.558218   4.857161   5.355179   5.726076
    13  H    2.567362   3.047839   4.184324   4.601584   5.096615
    14  H    3.608508   4.326076   5.590123   5.935485   6.593078
    15  H    3.954299   4.256456   5.529414   6.134330   6.214624
    16  N    4.037213   4.417477   5.807921   6.432859   6.533495
    17  H    2.091330   2.721219   4.047828   4.504013   5.027006
    18  C    4.498129   4.807460   6.098659   6.712935   6.761793
    19  H    4.637521   4.843638   6.225614   6.960438   6.785202
    20  H    4.255243   4.725503   5.938925   6.400975   6.751611
    21  H    4.509934   4.579810   5.777635   6.494550   6.249154
    22  H    5.576071   5.897054   7.191370   7.806655   7.822867
    23  O    3.988218   3.653763   4.837122   5.791991   4.999051
    24  C    4.842281   3.886387   2.768578   3.215956   1.519534
    25  C    5.235951   4.162680   3.496173   4.283692   2.127729
    26  H    5.344843   4.459006   3.270907   3.520854   2.227196
    27  H    5.344102   4.459425   3.269792   3.518055   2.227349
    28  H    5.901664   4.837447   4.229843   5.002579   2.909106
    29  H    5.903129   4.837951   4.231386   5.004987   2.909826
                    6          7          8          9         10
     6  C    0.000000
     7  C    1.384609   0.000000
     8  H    2.179334   1.085632   0.000000
     9  C    2.382244   1.410981   2.165447   0.000000
    10  C    3.747033   2.490372   2.672386   1.500224   0.000000
    11  C    5.028841   3.911949   4.211239   2.646938   1.542688
    12  C    5.619943   4.601478   4.935660   3.373474   2.509412
    13  H    5.159794   4.346627   4.852634   3.146881   2.779235
    14  H    6.606050   5.627803   5.990678   4.335937   3.463433
    15  H    5.905897   4.789232   4.913961   3.776850   2.748913
    16  N    6.178825   4.951676   5.011717   3.856627   2.502707
    17  H    5.062207   4.143176   4.646447   2.778298   2.170220
    18  C    6.399040   5.237454   5.275549   4.267046   3.120042
    19  H    6.238083   4.915398   4.767614   4.021703   2.533028
    20  H    6.602401   5.588546   5.812869   4.498823   3.602754
    21  H    5.756040   4.609695   4.560638   3.864855   2.874063
    22  H    7.392280   6.189121   6.106773   5.296289   4.064038
    23  O    4.168494   2.787192   2.459900   2.372848   1.225310
    24  C    2.126735   3.492302   4.281020   4.180220   5.662079
    25  C    1.520487   2.764304   3.214087   3.900498   5.225757
    26  H    2.908610   4.227096   5.001893   4.854682   6.325649
    27  H    2.908997   4.226947   5.001440   4.854971   6.327695
    28  H    2.228695   3.266719   3.518744   4.472303   5.704267
    29  H    2.229688   3.268360   3.520936   4.473157   5.703178
                   11         12         13         14         15
    11  C    0.000000
    12  C    1.537476   0.000000
    13  H    2.203444   1.097433   0.000000
    14  H    2.165204   1.093678   1.780926   0.000000
    15  H    2.174244   1.095596   1.770265   1.772472   0.000000
    16  N    1.471150   2.460332   3.430102   2.671363   2.739132
    17  H    1.093377   2.161084   2.533750   2.495521   3.070713
    18  C    2.455574   3.779009   4.622427   3.959000   4.165077
    19  H    2.003068   2.751028   3.737236   3.134042   2.621089
    20  H    2.732151   4.018797   4.747493   4.036501   4.640622
    21  H    2.782330   4.255902   4.970722   4.666284   4.585931
    22  H    3.391077   4.545597   5.489664   4.594102   4.786766
    23  O    2.382752   3.216428   3.650025   4.157466   3.053633
    24  C    6.732912   7.196574   6.530717   8.083372   7.618248
    25  C    6.545552   7.102068   6.587925   8.096459   7.335307
    26  H    7.336183   7.928993   7.302757   8.765488   8.432198
    27  H    7.343462   7.606967   6.826211   8.476463   7.996518
    28  H    7.071205   7.465614   6.912665   8.496500   7.567300
    29  H    7.064686   7.794450   7.384524   8.785776   8.027337
                   16         17         18         19         20
    16  N    0.000000
    17  H    2.070635   0.000000
    18  C    1.466168   2.565214   0.000000
    19  H    1.019893   2.878866   2.025083   0.000000
    20  H    2.098142   2.386054   1.095674   2.930493   0.000000
    21  H    2.176512   2.910586   1.103228   2.441454   1.781872
    22  H    2.098611   3.588076   1.095831   2.379282   1.764475
    23  O    2.763655   3.210042   3.318598   2.335713   4.091857
    24  C    7.991305   6.535955   8.158005   8.185960   8.163289
    25  C    7.665307   6.567626   7.819553   7.676981   8.024261
    26  H    8.541019   7.017507   8.545908   8.805040   8.458659
    27  H    8.675179   7.173321   8.973250   8.858747   8.976903
    28  H    8.197808   7.219307   8.484508   8.107435   8.777273
    29  H    8.056778   7.065451   8.032265   8.049859   8.247459
                   21         22         23         24         25
    21  H    0.000000
    22  H    1.776098   0.000000
    23  O    2.921572   4.037717   0.000000
    24  C    7.553668   9.197223   6.244320   0.000000
    25  C    7.095588   8.784348   5.509886   1.585543   0.000000
    26  H    7.899797   9.575629   6.938503   1.096247   2.274411
    27  H    8.437389  10.027411   6.928083   1.096243   2.275347
    28  H    7.784476   9.425127   5.862143   2.273395   1.096037
    29  H    7.199400   8.944037   5.875732   2.273916   1.096102
                   26         27         28         29
    26  H    0.000000
    27  H    1.775053   0.000000
    28  H    3.069195   2.504657   0.000000
    29  H    2.504013   3.070066   1.775122   0.000000
                           Interatomic angles:
       H1-C2-C3=117.8676       C2-C3-H4=120.7868       C2-C3-C5=116.2091
       H4-C3-C5=123.0041       C3-C5-C6=122.0776       C5-C6-C7=122.2947
       C6-C7-H8=123.3731       C6-C7-C9=116.888        H8-C7-C9=119.7389
      C7-C9-C10=117.5849     C9-C10-C11=120.8808    C10-C11-C12=109.1154
    C11-C12-H13=112.4189    C11-C12-H14=109.6003    H13-C12-H14=108.7399
    C11-C12-H15=110.1981    H13-C12-H15=107.6511    H14-C12-H15=108.1169
    C10-C11-N16=112.2591    C12-C11-N16=109.7026    C10-C11-H17=109.6515
    C12-C11-H17=109.2957    N16-C11-H17=106.7618    C11-N16-C18=113.4383
    C11-N16-H19=105.6165    C18-N16-H19=107.7376    N16-C18-H20=109.1139
    N16-C18-H21=115.0637    H20-C18-H21=108.2591    N16-C18-H22=109.1417
[...]
 0.00006819,-0.00032996,-0.00024391,0.61451075,-0.00008020,0.00059553,0
 .00000893,-0.00008122,0.00344306,-0.00001652,0.00013600,-0.00146374,0.
 00003106,0.00001265,-0.00037610,0.00001001,0.00003529,-0.00010214,-0.0
 0010956,-0.00013287,-0.00043271,0.00000485,0.00001531,-0.00005625,-0.0
 0003135,-0.00005033,-0.00042362,-0.00003424,0.00152019,0.01741107,-0.0
 0010373,0.01493498,-0.06546810,-0.00922466,0.00604292,0.02029166,-0.00
 319385,-0.00075898,-0.00076845,0.00375974,0.00002173,0.00004210,-0.000
 13723,0.00034446,0.00131693,0.00005947,0.00030122,0.00080132,0.0005127
 9,-0.00250258,0.00075633,-0.00031661,-0.00100662,-0.00016095,-0.002899
 77,-0.00002065,-0.00219138,-0.00186890,0.00010228,-0.00174771,0.000483
 92,0.00008430,0.00029137,0.00068768,0.00065742,0.00118379,0.00132130,-
 0.00000668,0.00020251,0.00036206,-0.01956616,0.02651944,-0.00068335,-0
 .00011384,0.00048010,-0.00386902,0.00002540,-0.00172386,-0.00102946,0.
 00006720,0.00095666,-0.00020567,-0.00001217,-0.00008582,-0.00166907,0.
 00000299,0.00052406,0.00162555,0.00004449,0.00340946,-0.00303599,0.000
 11076,-0.00866916,-0.00264969,0.00005286,0.00224476,0.00323718,-0.0003
 3492,0.02515749,0.26248640,-0.00941071,-0.27372127,0.04519169,-0.00055
 608,-0.03644747,-0.00018479,0.00477385,-0.00340472,0.00050953,-0.00054
 996,-0.00000951,-0.00007721,-0.00235353,0.00001584,-0.00074407,-0.0006
 9163,0.00032208,0.00495015,-0.00059385,-0.00029372,-0.00050314,-0.0007
 7912,-0.00924665,-0.00000386,-0.00259336,-0.00114270,0.00128141,0.0006
 5972,-0.00098490,0.00007304,0.00009293,0.00029721,0.00006343,0.0010130
 3,0.00032661,-0.00028725,0.00048630,0.00016765,-0.30454152,0.01067101,
 0.30170301,0.00071822,-0.00001254,0.00044237,0.00312709,-0.00000660,0.
 00343033,0.00698853,0.00003529,-0.00011409,-0.00008968,0.00000666,-0.0
 0067672,-0.09726432,-0.00005658,-0.04731443,-0.08401472,-0.00015527,-0
 .02490460,-0.00402028,-0.00000392,-0.00027844,-0.00068260,0.00000374,-
 0.00046122,-0.00264412,0.00001216,0.00034648,0.00079191,0.00001908,0.0
 0022615,-0.00006159,-0.00008694,0.00009156,-0.00002883,0.00006707,-0.0
 0005926,0.00001287,-0.00004168,0.00000635,0.00000837,-0.00002524,-0.00
 000823,0.00002037,0.00000875,0.00001436,0.00001772,0.00003106,-0.00008
 944,0.00002285,0.00005164,-0.00007818,-0.00000034,-0.00001152,0.000015
 59,0.00003636,0.00000324,0.00003750,0.00000154,0.00000463,-0.00000954,
 -0.00000097,-0.00001094,0.00000094,0.00000039,0.00000124,-0.00000306,-
 0.00045690,-0.00000981,0.00002296,0.55487062,0.00002033,0.00050605,0.0
 0003628,-0.00000550,0.00746800,-0.00004620,-0.00002074,0.00013211,0.00
 003706,0.00000177,-0.00388227,-0.00000014,-0.00006960,-0.07545342,-0.0
 0004445,-0.00002232,0.01844778,-0.00006825,-0.00000593,0.00856939,-0.0
 0002580,-0.00000677,-0.00110377,0.00000259,0.00003240,-0.00097752,0.00
 004461,-0.00000371,-0.00133335,0.00002733,-0.00000076,0.00021258,-0.00
 011972,-0.00001180,0.00001234,0.00008090,0.00003212,-0.00002029,0.0000
 0401,0.00001320,0.00001214,0.00000951,0.00000900,-0.00000532,0.0000036
 4,-0.00002483,-0.00001751,-0.00002459,-0.00012467,-0.00002647,0.000000
 27,0.00000610,-0.00000401,-0.00001866,0.00000300,0.00000947,0.00000240
 ,-0.00000103,0.00000085,0.00000475,0.00000631,0.00000162,-0.00000193,-
 0.00000073,0.00000019,0.00000178,0.00005010,0.00019505,-0.00002971,-0.
 00010356,0.58652080,-0.00039520,-0.00000774,0.00023141,0.00361790,-0.0
 0000860,-0.00154403,-0.01024954,-0.00001987,-0.00768345,0.00041722,0.0
 0000467,0.00053869,-0.08467552,-0.00019153,-0.14681055,-0.01844767,-0.
 00001385,-0.01029235,0.00008878,-0.00000413,-0.00118673,0.00002585,-0.
 00000147,0.00028224,-0.00051776,-0.00000911,0.00048744,-0.00038750,-0.
 00002124,-0.00045055,-0.00008835,0.00007778,-0.00002949,0.,-0.00001296
 ,0.00003543,0.00001431,-0.00002810,-0.00001393,0.00001311,0.00001199,0
 .00001577,0.00000400,0.00000318,-0.00000254,0.00001797,-0.00003275,0.0
 0005476,-0.00000854,-0.00000177,0.00001539,0.00000254,0.00002343,-0.00
 001595,-0.00002045,-0.00001177,-0.00004351,-0.00000556,-0.00000207,0.0
 0000169,-0.00000468,0.00000681,0.00000281,0.00001119,-0.00000502,0.000
 00615,0.00022450,0.00000842,0.00006601,0.07616136,-0.00002383,0.351985
 32,0.00001515,-0.00000270,-0.00001611,-0.00036165,-0.00001581,0.000309
 63,-0.00181484,-0.00000633,0.00166419,0.00019192,0.00000132,0.00063931
 ,-0.00962154,0.00000447,0.02450588,-0.07725690,0.00000369,-0.07223269,
 -0.00009526,0.00000958,-0.01454431,0.00039969,0.00000694,0.00072657,-0
 .00321679,-0.00001316,0.00014984,0.00057797,-0.00003792,-0.00084239,-0
 .00025800,0.00003726,0.00020288,-0.00001220,0.00003278,-0.00001795,0.0
 0001417,-0.00003972,-0.00000766,0.00000956,-0.00001097,0.00000345,0.00
 000935,0.00000293,0.00000227,-0.00004542,-0.00000016,-0.00012246,0.000
 01534,0.00002941,-0.00001892,-0.00000048,-0.00003320,0.00000069,0.0000
 1147,0.00000331,0.00000089,0.00000031,0.00000447,-0.00000510,0.0000007
 3,0.00001009,0.00000951,0.00000459,0.00000347,0.00000262,-0.00004359,0
 .00000323,0.00021289,-0.11723606,-0.00009654,0.04877500,0.33621280,-0.
 00000826,-0.00121567,-0.00001335,-0.00001147,-0.00073541,0.00002367,-0
 .00001000,0.00824379,-0.00003072,0.00000155,-0.00062855,0.00000340,-0.
 00002109,0.01694575,-0.00007489,-0.00007960,-0.07469135,-0.00000568,0.
 00002831,-0.00086205,0.00001856,-0.00001593,-0.00433938,-0.00000317,-0
 .00001707,0.00833091,-0.00000482,0.00007775,0.00094255,0.00000152,-0.0
 0001447,-0.00050304,0.00001494,-0.00002310,-0.00000160,-0.00013863,0.0
 0000927,0.00001594,0.00000252,-0.00001754,-0.00003660,-0.00001889,-0.0
 0000645,-0.00000027,0.00000104,0.00002043,-0.00004866,0.00005327,0.000
 01839,0.00001934,0.00006429,0.00000256,0.00005829,0.00002743,-0.000005
 20,-0.00000350,-0.00001327,-0.00000174,-0.00000328,0.00000053,-0.00001
 076,-0.00000726,-0.00001849,0.00000130,-0.00000521,-0.00000350,-0.0000
 0307,0.00011812,0.00001199,0.00000497,-0.08868156,0.00016572,-0.000202
 52,0.59033004,-0.00022867,0.00000150,-0.00003028,0.00152473,-0.0000191
 3,-0.00126513,0.00108241,0.00000049,-0.00325541,0.00013335,-0.00000334
 ,-0.00071751,0.01779230,0.00008383,-0.08495238,-0.03448481,-0.00002252
 ,-0.16675637,-0.00437203,0.00000037,-0.00122624,-0.00028621,-0.0000010
 7,0.00001241,0.00026205,-0.00000140,0.00503400,-0.00075984,-0.00004003
 ,-0.00016707,0.00000671,0.00010282,0.00001844,0.00001299,-0.00005499,0
 .00005936,0.00001990,-0.00001782,-0.00001322,0.00001291,0.00002841,0.0
 0002422,0.00000061,0.00000385,-0.00000686,0.00003993,-0.00005052,0.000
 13161,0.00000865,-0.00000823,0.00001958,0.00000441,0.00005579,-0.00002
 171,-0.00003667,-0.00001792,-0.00005925,-0.00000878,-0.00000472,0.0000
 0549,-0.00000709,0.00001106,-0.00000334,0.00001603,-0.00001029,0.00000
 895,0.00045188,0.00001498,-0.00001347,0.03371836,0.00006634,-0.0701063
 7,-0.05062001,-0.00012798,0.57211951,-0.00003099,0.00002065,-0.0000603
 2,-0.00059768,0.00062698,-0.00024228,0.00050917,-0.00018511,0.00120432
 ,0.00010492,-0.00052467,-0.00023657,-0.00905171,-0.00887524,-0.0033625
 1,-0.00288521,0.00032085,-0.00106971,-0.00063071,0.00185763,-0.0004370
 1,-0.00012666,-0.00011803,-0.00001814,0.00010172,-0.00018868,-0.000105
 91,0.00016518,-0.00028082,0.00007241,0.00000026,0.00002953,0.00002801,
 0.00000589,0.00000898,-0.00000344,-0.00000772,0.00002020,0.00000822,-0
 .00000475,-0.00000606,-0.00001191,-0.00000372,-0.00000138,0.00000303,-
 0.00004838,0.00003151,-0.00007946,-0.00000367,-0.00001013,-0.00000018,
 -0.00000378,-0.00005448,0.00000679,0.00001475,0.00001289,0.00002951,0.
 00000715,0.00000309,-0.00000484,0.00000523,0.00000243,0.00000823,-0.00
 000943,0.00000880,-0.00000245,-0.00012454,0.00004245,-0.00010428,-0.12
 716908,-0.12179384,-0.01917318,-0.00972586,-0.01787420,-0.00395057,0.1
 3855739,-0.00002797,0.00002068,-0.00002075,-0.00040686,-0.00010467,-0.
 00016691,-0.00023009,0.00020040,0.00052662,-0.00007273,0.00002986,-0.0
 0007206,0.00127044,0.00355056,-0.00102852,0.00021912,0.00005428,-0.000
 71277,0.00030413,-0.00040916,0.00035745,0.00000105,0.00006919,-0.00001
 298,0.00014146,0.00001319,-0.00029634,0.00018420,0.00006048,0.00009500
 ,0.00002141,-0.00003811,0.00001842,0.00000373,0.00000761,-0.00001601,-
 0.00000891,0.00001283,0.00000672,-0.00000541,-0.00000656,-0.00001058,-
 0.00000181,-0.00000122,0.00000242,-0.00002580,0.00001635,-0.00004072,0
 .00000084,-0.00000335,0.00000452,-0.00000169,-0.00002418,0.00001350,0.
 00000886,0.00000650,0.00001860,0.00000474,0.00000166,-0.00000180,0.000
 00248,-0.00000068,0.00000047,-0.00000735,0.00000451,-0.00000298,-0.000
 10648,0.00000011,-0.00002387,-0.11976212,-0.22770691,-0.02917160,0.002
 98039,0.00199544,0.00086933,0.13116659,0.24254824,-0.00007990,0.000013
 24,-0.00009361,-0.00043076,0.00139789,-0.00000308,-0.00058756,0.000503
 00,0.00107852,0.00019932,-0.00067857,-0.00032756,-0.01381558,-0.024985
 98,-0.00196385,-0.00145350,0.00100857,-0.00306196,-0.00009437,0.000453
 73,0.00143930,-0.00021448,-0.00016066,-0.00014862,-0.00030129,-0.00002
 515,-0.00092527,0.00081914,0.00003628,0.00043313,0.00006062,-0.0001123
 0,0.00002035,-0.00001167,0.00004215,-0.00005220,-0.00000421,0.00002584
 ,0.00001588,-0.00000918,-0.00002573,-0.00002242,-0.00000372,-0.0000019
 4,0.00000845,-0.00005206,0.00003670,-0.00009775,-0.00002682,-0.0000102
 6,0.00000357,-0.00000398,-0.00005820,0.00002330,0.00002459,0.00001733,
 0.00004847,0.00000960,0.00000380,-0.00000671,0.00000403,-0.00000382,0.
 00000498,-0.00001383,0.00001020,-0.00000622,-0.00046780,0.00002275,0.0
 0000864,-0.02047048,-0.03198837,-0.05252571,0.00763038,0.01722150,0.00
 227192,0.02419270,0.03374150,0.05188501,-0.00003111,-0.00001717,-0.000
 06192,-0.00060732,-0.00062465,-0.00023867,0.00051850,0.00018213,0.0012
 1130,0.00010384,0.00052416,-0.00023599,-0.00911041,0.00878788,-0.00338
 326,-0.00287957,-0.00034797,-0.00107990,-0.00062915,-0.00185866,-0.000
 42300,-0.00012484,0.00011587,-0.00001769,0.00010201,0.00019056,-0.0001
 1867,0.00017313,0.00028457,0.00008566,0.00000961,-0.00006132,0.0000349
 0,-0.00000975,0.00002202,-0.00003819,0.00000051,0.00002243,0.00000671,
 -0.00000583,-0.00001730,-0.00001355,-0.00001067,-0.00000254,0.00000229
 ,-0.00004136,-0.00000063,-0.00007454,0.00000413,-0.00000811,0.00001493
 ,0.00000193,-0.00002049,0.00002086,0.00001295,0.00001304,0.00003071,0.
 00000497,0.00000125,-0.00000110,0.00000190,-0.00000466,-0.00000296,-0.
 00000943,0.00000417,-0.00000470,-0.00013334,-0.00004078,-0.00010227,-0
 .12802955,0.12210445,-0.01938074,-0.00970389,0.01781177,-0.00399386,0.
 01192102,-0.01533128,0.00304113,0.13949573,0.00002696,0.00001804,0.000
 01916,0.00040309,-0.00011153,0.00017058,0.00023406,0.00020202,-0.00051
 934,0.00007209,0.00003350,0.00006975,-0.00136052,0.00354710,0.00100365
 ,-0.00021867,0.00004922,0.00070954,-0.00030831,-0.00041278,-0.00035636
 ,-0.00000042,0.00006923,0.00001294,-0.00014216,0.00001327,0.00029350,-
 0.00018096,0.00004974,-0.00010134,-0.00001655,-0.00000528,-0.00001179,
 0.00000143,-0.00000968,0.00000914,0.00000376,-0.00001257,-0.00000614,0
 .00000476,0.00000611,0.00000907,0.00000346,0.00000243,-0.00000183,0.00
 002577,-0.00000066,0.00004660,0.00000577,0.00000571,-0.00000511,-0.000
 00143,0.00001279,-0.00001395,-0.00000992,-0.00000843,-0.00002028,-0.00
 000352,-0.00000146,-0.00000048,-0.00000364,0.00000318,0.00000415,0.000
 00726,-0.00000305,0.00000340,0.00009886,0.00000084,0.00002832,0.120053
 70,-0.22695834,0.02925002,-0.00301584,0.00201531,-0.00089674,0.0154377
 8,-0.02161628,0.00383884,-0.13141815,0.24178174,-0.00008531,-0.0000118
 8,-0.00010558,-0.00041716,-0.00139469,0.00001922,-0.00057438,-0.000508
 85,0.00106815,0.00020311,0.00067261,-0.00031500,-0.01387808,0.02490053
 ,-0.00198843,-0.00144887,-0.00103570,-0.00306266,-0.00009483,-0.000450
 04,0.00144759,-0.00021204,0.00016178,-0.00014940,-0.00031378,0.0000311
 1,-0.00093313,0.00080503,0.00001252,0.00042585,0.00004934,-0.00000306,
 0.00005984,-0.00001442,0.00003464,-0.00004810,-0.00001133,0.00003227,0
 .00001374,-0.00001141,-0.00002177,-0.00002174,-0.00000796,-0.00000410,
 0.00000486,-0.00004364,0.00001766,-0.00010127,0.00001750,-0.00000476,-
 0.00001029,-0.00000033,-0.00004581,0.00002520,0.00002648,0.00001917,0.
 00005311,0.00000809,0.00000383,-0.00000371,0.00000782,-0.00000847,-0.0
 0000025,-0.00001431,0.00000824,-0.00000757,-0.00047657,-0.00003193,0.0
 0001294,-0.02069067,0.03207686,-0.05267339,0.00759707,-0.01717696,0.00
 229073,0.00304499,-0.00381742,0.00164441,0.02445547,-0.03379738,0.0519
 9939,0.00007535,-0.00014770,0.00004740,-0.00042064,0.00009180,-0.00020
 397,0.00105540,0.00054592,0.00066973,-0.00002125,0.00001524,-0.0001708
 8,-0.00205772,-0.00071773,-0.00064962,0.00374809,0.01697696,-0.0066945
 7,0.00072302,-0.00034175,-0.00038961,-0.00015437,0.00034921,0.00002574
 ,0.00012951,-0.00092971,-0.00014113,0.00018220,-0.00005942,-0.00008599
 ,0.00000207,0.00003778,0.00002138,0.00000935,-0.00000105,0.00000163,-0
 .00000697,0.00002071,0.00000418,-0.00000492,-0.00000245,-0.00000489,-0
 .00001083,-0.00000264,-0.00000166,-0.00003023,0.00001267,-0.00004785,0
 .00000545,-0.00000797,0.00000714,-0.00000118,-0.00002096,0.00000556,0.
 00000668,0.00000727,0.00001276,0.00000212,0.00000077,0.00000099,0.0000
 0496,0.00000108,0.00000177,-0.00000565,0.00000383,-0.00000283,-0.00009
 768,-0.00002993,0.00001821,-0.00242507,-0.02380126,0.01196769,-0.05394
 429,-0.03273368,0.02171378,-0.00234274,0.00005198,0.00318579,0.0013182
 2,0.00035472,-0.00110276,0.05268770,-0.00000099,0.00004050,0.00001049,
 0.00026061,0.00000072,-0.00005166,-0.00012514,-0.00041633,-0.00039150,
 0.00000603,0.00004638,0.00001211,0.00074917,0.00017645,0.00011763,0.00
 163237,0.00376739,-0.00064475,-0.00057255,0.00021891,-0.00009391,-0.00
 000542,0.00003986,0.00009711,0.00005192,-0.00011817,0.00048312,-0.0003
 0797,0.00000040,-0.00005703,-0.00001493,0.00001257,-0.00002103,-0.0000
 0224,-0.00001012,0.00001421,0.00000423,-0.00001513,-0.00000386,0.00000
 486,0.00000802,0.00000892,0.00000690,0.00000329,-0.00000181,0.00002903
 ,-0.00000198,0.00004656,0.00000440,0.00000700,-0.00000561,-0.00000194,
 0.00001212,-0.00001345,-0.00001031,-0.00000865,-0.00001925,-0.00000232
 ,-0.00000076,-0.00000200,-0.00000462,0.00000222,0.00000333,0.00000803,
 -0.00000351,0.00000480,0.00017131,0.00001076,-0.00002733,0.00074196,0.
 00201777,-0.00311104,-0.03420679,-0.22877062,0.11871923,0.00018278,0.0
 0044697,0.00004299,-0.00012215,0.00088574,0.00037651,0.03589791,0.2431
 9065,-0.00002736,0.00022760,-0.00004566,-0.00029431,0.00016918,-0.0000
 6427,0.00050206,-0.00181832,-0.00048674,0.00007018,0.00009183,-0.00028
 412,-0.00059805,-0.00050201,-0.00391415,0.00394924,0.01988546,-0.01466
 317,0.00129558,-0.00000258,0.00104439,-0.00030822,0.00086754,-0.000023
 13,-0.00004599,-0.00134240,-0.00088667,0.00061909,-0.00004418,0.000077
 50,0.00003639,0.00004562,0.00002960,0.00000240,0.00002703,-0.00001709,
 -0.00000207,0.00003734,0.00000737,-0.00000694,-0.00001694,-0.00001462,
 -0.00002281,-0.00000675,0.00000136,-0.00007151,0.00001105,-0.00011039,
 -0.00001068,-0.00002675,0.00001321,0.00000226,-0.00004619,0.00001674,0
 .00001836,0.00002202,0.00004478,0.00000628,0.00000159,0.00000213,0.000
 00938,-0.00000267,0.00000103,-0.00001578,0.00000859,-0.00000707,-0.000
 38368,-0.00005857,0.00002216,0.00030599,0.00685129,-0.00516237,0.02286
 035,0.12165421,-0.12661939,-0.00006243,-0.00018177,-0.00052735,0.00032
 914,0.00008197,0.00088286,-0.02520985,-0.13070227,0.13867364,0.0000760
 9,0.00015215,0.00004931,-0.00041696,-0.00008246,-0.00020238,0.00105433
 ,-0.00054480,0.00066952,-0.00002123,-0.00001504,-0.00017121,-0.0020516
 0,0.00071965,-0.00063638,0.00379059,-0.01697799,-0.00668339,0.00072817
 ,0.00032981,-0.00038098,-0.00015947,-0.00034897,0.00002036,0.00013348,
 0.00093114,-0.00014037,0.00019637,0.00006604,-0.00008085,0.00000676,-0
 .00006163,0.00000612,-0.00000094,-0.00000156,-0.00002363,-0.00000325,0
 .00001959,0.00000843,-0.00000643,-0.00000753,-0.00001036,-0.00000477,-
 0.00000345,0.00000155,-0.00002777,0.00001031,-0.00002733,-0.00000577,-
 0.00000784,0.00002155,-0.00000114,-0.00002310,-0.00000037,0.00000402,0
 .00000435,0.00000867,0.00000198,0.00000092,0.00000290,0.00000357,0.000
 00351,0.00000343,-0.00000583,0.00000403,-0.00000227,-0.00009978,0.0000
 3238,0.00001819,-0.00249275,0.02381482,0.01201330,-0.05412630,0.033079
 85,0.02194757,0.00137396,-0.00037293,-0.00112612,-0.00234225,-0.000053
 41,0.00318292,0.00157344,-0.00437413,-0.00294704,0.05282346,0.00000163
 ,0.00004273,-0.00000992,-0.00026340,0.00000602,0.00005067,0.00012924,-
 0.00041820,0.00039812,-0.00000626,0.00004638,-0.00001255,-0.00075021,0
 .00018995,-0.00011739,-0.00162809,0.00371768,0.00063433,0.00057258,0.0
 0022453,0.00009194,0.00000555,0.00003813,-0.00009850,-0.00005101,-0.00
 011762,-0.00048628,0.00030782,0.00000602,0.00005231,0.00001859,-0.0000
 2137,0.00001996,0.00000495,0.00000804,-0.00001239,-0.00001003,0.000013
 41,0.00000591,-0.00000445,-0.00000543,-0.00000924,-0.00000217,-0.00000
 222,0.00000320,-0.00003341,0.00002232,-0.00004495,-0.00000218,-0.00000
 582,0.00000721,-0.00000107,-0.00003108,0.00000530,0.00000938,0.0000055
 3,0.00001743,0.00000337,0.00000158,0.00000122,0.00000516,0.00000228,0.
 00000401,-0.00000840,0.00000549,-0.00000376,-0.00017322,0.00001118,0.0
 0002922,-0.00075849,0.00206459,0.00312645,0.03454833,-0.22848146,-0.11
 868131,0.00013951,0.00087230,-0.00036533,-0.00018843,0.00044410,-0.000
 03489,0.00442840,-0.02154241,-0.01523091,-0.03629371,0.24290335,-0.000
 02921,-0.00021906,-0.00004967,-0.00029603,-0.00016368,-0.00005807,0.00
 050098,0.00180936,-0.00049264,0.00007049,-0.00009163,-0.00028385,-0.00
 061484,0.00050065,-0.00391788,0.00399653,-0.01982977,-0.01466276,0.001
 29971,-0.00000774,0.00105244,-0.00031640,-0.00087049,-0.00002469,-0.00
 004523,0.00135373,-0.00089028,0.00063919,0.00005374,0.00007179,0.00003
 955,-0.00010504,0.00004147,0.00000392,0.00001377,-0.00004794,-0.000014
 52,0.00004266,0.00001073,-0.00001307,-0.00001994,-0.00002290,-0.000012
 47,-0.00000388,0.00000487,-0.00007064,0.00004772,-0.00008700,0.0000000
 7,-0.00001777,0.00002367,-0.00000486,-0.00007787,0.00000334,0.00001635
 ,0.00001484,0.00003616,0.00000856,0.00000306,-0.00000046,0.00000697,0.
 00000655,0.00001421,-0.00001555,0.00001278,-0.00000458,-0.00038734,0.0
 0006795,0.00002858,0.00033807,-0.00685798,-0.00518218,0.02313417,-0.12
 163426,-0.12678219,0.00032696,-0.00007748,0.00087635,-0.00006207,0.000
 18012,-0.00052736,-0.00297815,0.01520949,0.01200940,-0.02552113,0.1306
 6014,0.13886147||-0.00005393,0.00001490,0.00000334,0.00008002,-0.00007
 667,0.00000132,-0.00001294,0.00005420,-0.00002314,0.00000178,-0.000000
 49,0.00000124,-0.00000963,0.00001071,0.00002106,0.00002847,0.00000699,
 -0.00000230,-0.00001974,-0.00001774,-0.00002517,0.00000301,0.00000232,
 0.00000292,0.00000380,0.00001562,0.00002148,-0.00002717,0.00000465,-0.
 00002538,0.00004707,-0.00003671,0.00005241,-0.00000035,0.00001067,0.00
 000061,0.00000075,-0.00000319,-0.00000363,-0.00000455,0.00000097,0.000
 00212,0.00000118,-0.00000288,0.00000151,-0.00002524,-0.00000441,-0.000
 04711,0.00000346,0.00000102,0.00000458,-0.00000491,0.00002740,0.000020
 27,-0.00001312,-0.00000296,0.00001106,-0.00000245,-0.00000311,-0.00000
 462,0.00000364,-0.00000065,-0.00000434,-0.00000183,0.00000050,0.000001
 40,0.00000155,0.00000551,-0.00001383,0.00000329,-0.00000008,0.00000212
 ,-0.00000445,-0.00000718,-0.00000081,0.00000259,-0.00000049,0.00000110
 ,0.00000060,0.00000014,-0.00000121,-0.00000120,0.00000093,0.00000204,0
 .00000029,0.00000002,0.00000095|||@


 ONE THORN OF EXPERIENCE IS WORTH A WHOLE WILDERNESS OF
 WARNING....  LOWELL - AMONG MY BOOKS
 Job cpu time:  0 days  1 hours 30 minutes 29.0 seconds.
 File lengths (MBytes):  RWF=    188 Int=      0 D2E=      0 Chk=     11 Scr=      1
 Normal termination of Gaussian 03 at Thu Sep 16 18:25:43 2021.
