 Entering Link 1 = C:\G03W\l1.exe PID=      1900.
  
 Copyright (c) 1988,1990,1992,1993,1995,1998,2003,2004, Gaussian, Inc.
                  All Rights Reserved.
  
 This is the Gaussian(R) 03 program.  It is based on the
 the Gaussian(R) 98 system (copyright 1998, Gaussian, Inc.),
 the Gaussian(R) 94 system (copyright 1995, Gaussian, Inc.),
 the Gaussian 92(TM) system (copyright 1992, Gaussian, Inc.),
 the Gaussian 90(TM) system (copyright 1990, Gaussian, Inc.),
 the Gaussian 88(TM) system (copyright 1988, Gaussian, Inc.),
 the Gaussian 86(TM) system (copyright 1986, Carnegie Mellon
 University), and the Gaussian 82(TM) system (copyright 1983,
 Carnegie Mellon University). Gaussian is a federally registered
 trademark of Gaussian, Inc.
  
 This software contains proprietary and confidential information,
 including trade secrets, belonging to Gaussian, Inc.
  
 This software is provided under written license and may be
 used, copied, transmitted, or stored only in accord with that
 written license.
  
 The following legend is applicable only to US Government
 contracts under FAR:
  
                    RESTRICTED RIGHTS LEGEND
  
 Use, reproduction and disclosure by the US Government is
 subject to restrictions as set forth in subparagraphs (a)
 and (c) of the Commercial Computer Software - Restricted
 Rights clause in FAR 52.227-19.
  
 Gaussian, Inc.
 340 Quinnipiac St., Bldg. 40, Wallingford CT 06492
  
  
 ---------------------------------------------------------------
 Warning -- This program may not be used in any manner that
 competes with the business of Gaussian, Inc. or will provide
 assistance to any competitor of Gaussian, Inc.  The licensee
 of this program is prohibited from giving any competitor of
 Gaussian, Inc. access to this program.  By using this program,
 the user acknowledges that Gaussian, Inc. is engaged in the
 business of creating and licensing software in the field of
 computational chemistry and represents and warrants to the
 licensee that it is not a competitor of Gaussian, Inc. and that
 it will not use this program in any manner prohibited above.
 ---------------------------------------------------------------
  

 Cite this work as:
 Gaussian 03, Revision C.01,
 M. J. Frisch, G. W. Trucks, H. B. Schlegel, G. E. Scuseria, 
 M. A. Robb, J. R. Cheeseman, J. A. Montgomery, Jr., T. Vreven, 
 K. N. Kudin, J. C. Burant, J. M. Millam, S. S. Iyengar, J. Tomasi, 
 V. Barone, B. Mennucci, M. Cossi, G. Scalmani, N. Rega, 
 G. A. Petersson, H. Nakatsuji, M. Hada, M. Ehara, K. Toyota, 
 R. Fukuda, J. Hasegawa, M. Ishida, T. Nakajima, Y. Honda, O. Kitao, 
 H. Nakai, M. Klene, X. Li, J. E. Knox, H. P. Hratchian, J. B. Cross, 
 C. Adamo, J. Jaramillo, R. Gomperts, R. E. Stratmann, O. Yazyev, 
 A. J. Austin, R. Cammi, C. Pomelli, J. W. Ochterski, P. Y. Ayala, 
 K. Morokuma, G. A. Voth, P. Salvador, J. J. Dannenberg, 
 V. G. Zakrzewski, S. Dapprich, A. D. Daniels, M. C. Strain, 
 O. Farkas, D. K. Malick, A. D. Rabuck, K. Raghavachari, 
 J. B. Foresman, J. V. Ortiz, Q. Cui, A. G. Baboul, S. Clifford, 
 J. Cioslowski, B. B. Stefanov, G. Liu, A. Liashenko, P. Piskorz, 
 I. Komaromi, R. L. Martin, D. J. Fox, T. Keith, M. A. Al-Laham, 
 C. Y. Peng, A. Nanayakkara, M. Challacombe, P. M. W. Gill, 
 B. Johnson, W. Chen, M. W. Wong, C. Gonzalez, and J. A. Pople, 
 Gaussian, Inc., Wallingford CT, 2004.
 
 ******************************************
 Gaussian 03:  IA32W-G03RevC.01  3-Apr-2004
                16-Sep-2021 
 ******************************************
 Default route:  MaxDisk=2000MB
 -----------------------------------------------
 # B3LYP/6-31G(d) opt=z-matrix freq=noraman test
 -----------------------------------------------
 1/10=7,14=-1,18=40,26=3,38=1/1,3;
 2/17=6,18=5,29=3,40=1/2;
 3/5=1,6=6,7=1,11=2,16=1,25=1,30=1,74=-5/1,2,3;
 4//1;
 5/5=2,38=5/2;
 6/7=2,8=2,9=2,10=2,28=1/1;
 7/29=1/1,2,3,16;
 1/10=7,14=-1,18=40/3(1);
 99//99;
 2/29=3/2;
 3/5=1,6=6,7=1,11=2,16=1,25=1,30=1,74=-5/1,2,3;
 4/5=5,16=3/1;
 5/5=2,38=5/2;
 7//1,2,3,16;
 1/14=-1,18=40/3(-5);
 2/29=3/2;
 6/7=2,8=2,9=2,10=2,19=2,28=1/1;
 99/9=1/99;
 ----
 3mmc
 ----
 Symbolic Z-matrix:
 Charge =  0 Multiplicity = 1
 H
 C                    1    B1
 C                    2    B2       1    A2
 H                    3    B3       2    A3       1    D3       0
 C                    3    B4       2    A4       1    D4       0
 H                    5    B5       3    A5       2    D5       0
 C                    5    B6       3    A6       2    D6       0
 C                    7    B7       5    A7       3    D7       0
 H                    8    B8       7    A8       5    D8       0
 C                    2    B9       1    A9       3    D9       0
 C                    10   B10      2    A10      1    D10      0
 C                    11   B11      10   A11      2    D11      0
 C                    12   B12      11   A12      10   D12      0
 H                    13   B13      12   A13      11   D13      0
 H                    13   B14      12   A14      11   D14      0
 H                    13   B15      12   A15      11   D15      0
 N                    12   B16      11   A16      10   D16      0
 H                    12   B17      11   A17      10   D17      0
 C                    17   B18      12   A18      11   D18      0
 H                    17   B19      12   A19      11   D19      0
 H                    19   B20      17   A20      12   D20      0
 H                    19   B21      17   A21      12   D21      0
 H                    19   B22      17   A22      12   D22      0
 O                    11   B23      10   A23      2    D23      0
 C                    7    B24      5    A24      3    D24      0
 H                    25   B25      7    A25      5    D25      0
 H                    25   B26      7    A26      5    D26      0
 H                    25   B27      7    A27      5    D27      0
       Variables:
  B1                    1.08493                  
  B2                    1.39755                  
  A2                  117.5753                   
  B3                    1.08779                  
  A3                  119.9476                   
  D3                    0.05707                  
  B4                    1.39455                  
  A4                  120.35306                  
  D4                  180.33535                  
  B5                    1.08821                  
  A5                  119.33853                  
  D5                  179.44339                  
  B6                    1.39776                  
  A6                  120.33592                  
  D6                  359.44715                  
  B7                    1.40208                  
  A7                  119.03984                  
  D7                    1.1879                   
  B8                    1.08984                  
  A8                  119.28836                  
  D8                  178.78591                  
  B9                    1.39945                  
  A9                  122.23158                  
  D9                  180.50923                  
  B10                   1.49856                  
  A10                 123.08377                  
  D10                 359.95264                  
  B11                   1.54024                  
  A11                 119.78458                  
  D11                   1.21884                  
  B12                   1.52687                  
  A12                 109.13226                  
  D12                  84.00788                  
  B13                   1.09492                  
  A13                 111.23206                  
  D13                 298.22159                  
  B14                   1.09561                  
  A14                 111.049                    
  D14                 178.38687                  
  B15                   1.09649                  
  A15                 111.5338                   
  D15                  57.71032                  
  B16                   1.48252                  
  A16                 110.09994                  
  D16                 202.0659                   
  B17                   1.09377                  
  A17                 111.17418                  
  D17                 322.53029                  
  B18                   1.45889                  
  A18                 111.82187                  
  D18                  76.42822                  
  B19                   1.02625                  
  A19                 106.90319                  
  D19                 318.46712                  
  B20                   1.09475                  
  A20                 111.01364                  
  D20                  62.35841                  
  B21                   1.09434                  
  A21                 112.26171                  
  D21                 300.01995                  
  B22                   1.09449                  
  A22                 109.23222                  
  D22                 180.5777                   
  B23                   1.23417                  
  A23                 118.9485                   
  D23                 179.91747                  
  B24                   1.50032                  
  A24                 120.57538                  
  D24                 178.26598                  
  B25                   1.09507                  
  A25                 110.94118                  
  D25                  30.21954                  
  B26                   1.09434                  
  A26                 109.97131                  
  D26                 269.77026                  
  B27                   1.09505                  
  A27                 110.85885                  
  D27                 149.25665                  
 

 GradGradGradGradGradGradGradGradGradGradGradGradGradGradGradGradGradGrad
 Berny optimization.
 Initialization pass.
                       ----------------------------
                       !    Initial Parameters    !
                       ! (Angstroms and Degrees)  !
 ----------------------                            ----------------------
 !      Name          Value   Derivative information (Atomic Units)     !
 ------------------------------------------------------------------------
 !       B1          1.0849   estimate D2E/DX2                          !
 !       B2          1.3976   estimate D2E/DX2                          !
 !       A2        117.5753   estimate D2E/DX2                          !
 !       B3          1.0878   estimate D2E/DX2                          !
 !       A3        119.9476   estimate D2E/DX2                          !
 !       D3          0.0571   estimate D2E/DX2                          !
 !       B4          1.3946   estimate D2E/DX2                          !
 !       A4        120.3531   estimate D2E/DX2                          !
 !       D4        180.3354   estimate D2E/DX2                          !
 !       B5          1.0882   estimate D2E/DX2                          !
 !       A5        119.3385   estimate D2E/DX2                          !
 !       D5        179.4434   estimate D2E/DX2                          !
 !       B6          1.3978   estimate D2E/DX2                          !
 !       A6        120.3359   estimate D2E/DX2                          !
 !       D6        359.4472   estimate D2E/DX2                          !
 !       B7          1.4021   estimate D2E/DX2                          !
 !       A7        119.0398   estimate D2E/DX2                          !
 !       D7          1.1879   estimate D2E/DX2                          !
 !       B8          1.0898   estimate D2E/DX2                          !
 !       A8        119.2884   estimate D2E/DX2                          !
 !       D8        178.7859   estimate D2E/DX2                          !
 !       B9          1.3995   estimate D2E/DX2                          !
 !       A9        122.2316   estimate D2E/DX2                          !
 !       D9        180.5092   estimate D2E/DX2                          !
 !       B10         1.4986   estimate D2E/DX2                          !
 !       A10       123.0838   estimate D2E/DX2                          !
 !       D10       359.9526   estimate D2E/DX2                          !
 !       B11         1.5402   estimate D2E/DX2                          !
 !       A11       119.7846   estimate D2E/DX2                          !
 !       D11         1.2188   estimate D2E/DX2                          !
 !       B12         1.5269   estimate D2E/DX2                          !
 !       A12       109.1323   estimate D2E/DX2                          !
 !       D12        84.0079   estimate D2E/DX2                          !
 !       B13         1.0949   estimate D2E/DX2                          !
 !       A13       111.2321   estimate D2E/DX2                          !
 !       D13       298.2216   estimate D2E/DX2                          !
 !       B14         1.0956   estimate D2E/DX2                          !
 !       A14       111.049    estimate D2E/DX2                          !
 !       D14       178.3869   estimate D2E/DX2                          !
 !       B15         1.0965   estimate D2E/DX2                          !
 !       A15       111.5338   estimate D2E/DX2                          !
 !       D15        57.7103   estimate D2E/DX2                          !
 !       B16         1.4825   estimate D2E/DX2                          !
 !       A16       110.0999   estimate D2E/DX2                          !
 !       D16       202.0659   estimate D2E/DX2                          !
 !       B17         1.0938   estimate D2E/DX2                          !
 !       A17       111.1742   estimate D2E/DX2                          !
 !       D17       322.5303   estimate D2E/DX2                          !
 !       B18         1.4589   estimate D2E/DX2                          !
 !       A18       111.8219   estimate D2E/DX2                          !
 !       D18        76.4282   estimate D2E/DX2                          !
 !       B19         1.0263   estimate D2E/DX2                          !
 !       A19       106.9032   estimate D2E/DX2                          !
 !       D19       318.4671   estimate D2E/DX2                          !
 !       B20         1.0948   estimate D2E/DX2                          !
 !       A20       111.0136   estimate D2E/DX2                          !
 !       D20        62.3584   estimate D2E/DX2                          !
 !       B21         1.0943   estimate D2E/DX2                          !
 !       A21       112.2617   estimate D2E/DX2                          !
 !       D21       300.0199   estimate D2E/DX2                          !
 !       B22         1.0945   estimate D2E/DX2                          !
 !       A22       109.2322   estimate D2E/DX2                          !
 !       D22       180.5777   estimate D2E/DX2                          !
 !       B23         1.2342   estimate D2E/DX2                          !
 !       A23       118.9485   estimate D2E/DX2                          !
 !       D23       179.9175   estimate D2E/DX2                          !
 !       B24         1.5003   estimate D2E/DX2                          !
 !       A24       120.5754   estimate D2E/DX2                          !
 !       D24       178.266    estimate D2E/DX2                          !
 !       B25         1.0951   estimate D2E/DX2                          !
 !       A25       110.9412   estimate D2E/DX2                          !
 !       D25        30.2195   estimate D2E/DX2                          !
 !       B26         1.0943   estimate D2E/DX2                          !
 !       A26       109.9713   estimate D2E/DX2                          !
 !       D26       269.7703   estimate D2E/DX2                          !
 !       B27         1.0951   estimate D2E/DX2                          !
 !       A27       110.8589   estimate D2E/DX2                          !
 !       D27       149.2567   estimate D2E/DX2                          !
 ------------------------------------------------------------------------
 Trust Radius=3.00D-01 FncErr=1.00D-07 GrdErr=1.00D-06
 Number of steps in this run=  88 maximum allowed number of steps= 156.
 GradGradGradGradGradGradGradGradGradGradGradGradGradGradGradGradGradGrad

 ------------------------------------------------------------------------
                         Z-MATRIX (ANGSTROMS AND DEGREES)
 CD Cent Atom  N1     Length/X     N2    Alpha/Y     N3     Beta/Z      J
 ------------------------------------------------------------------------
   1   1  H 
   2   2  C     1   1.084930(  1)
   3   3  C     2   1.397550(  2)   1  117.575( 28)
   4   4  H     3   1.087790(  3)   2  119.948( 29)   1    0.057( 54)   0
   5   5  C     3   1.394550(  4)   2  120.353( 30)   1  180.335( 55)   0
   6   6  H     5   1.088210(  5)   3  119.339( 31)   2  179.443( 56)   0
   7   7  C     5   1.397760(  6)   3  120.336( 32)   2  359.447( 57)   0
   8   8  C     7   1.402080(  7)   5  119.040( 33)   3    1.188( 58)   0
   9   9  H     8   1.089840(  8)   7  119.288( 34)   5  178.786( 59)   0
  10  10  C     2   1.399450(  9)   1  122.232( 35)   3  180.509( 60)   0
  11  11  C    10   1.498560( 10)   2  123.084( 36)   1  359.953( 61)   0
  12  12  C    11   1.540240( 11)  10  119.785( 37)   2    1.219( 62)   0
  13  13  C    12   1.526870( 12)  11  109.132( 38)  10   84.008( 63)   0
  14  14  H    13   1.094920( 13)  12  111.232( 39)  11  298.222( 64)   0
  15  15  H    13   1.095610( 14)  12  111.049( 40)  11  178.387( 65)   0
  16  16  H    13   1.096490( 15)  12  111.534( 41)  11   57.710( 66)   0
  17  17  N    12   1.482520( 16)  11  110.100( 42)  10  202.066( 67)   0
  18  18  H    12   1.093770( 17)  11  111.174( 43)  10  322.530( 68)   0
  19  19  C    17   1.458890( 18)  12  111.822( 44)  11   76.428( 69)   0
  20  20  H    17   1.026250( 19)  12  106.903( 45)  11  318.467( 70)   0
  21  21  H    19   1.094750( 20)  17  111.014( 46)  12   62.358( 71)   0
  22  22  H    19   1.094340( 21)  17  112.262( 47)  12  300.020( 72)   0
  23  23  H    19   1.094490( 22)  17  109.232( 48)  12  180.578( 73)   0
  24  24  O    11   1.234170( 23)  10  118.949( 49)   2  179.917( 74)   0
  25  25  C     7   1.500320( 24)   5  120.575( 50)   3  178.266( 75)   0
  26  26  H    25   1.095070( 25)   7  110.941( 51)   5   30.220( 76)   0
  27  27  H    25   1.094340( 26)   7  109.971( 52)   5  269.770( 77)   0
  28  28  H    25   1.095050( 27)   7  110.859( 53)   5  149.257( 78)   0
 ------------------------------------------------------------------------
                         Z-Matrix orientation:                         
 ---------------------------------------------------------------------
 Center     Atomic     Atomic              Coordinates (Angstroms)
 Number     Number      Type              X           Y           Z
 ---------------------------------------------------------------------
    1          1             0        0.000000    0.000000    0.000000
    2          6             0        0.000000    0.000000    1.084930
    3          6             0        1.238793    0.000000    1.731875
    4          1             0        2.156459    0.000939    1.147773
    5          6             0        1.306385   -0.007043    3.124769
    6          1             0        2.279726   -0.016146    3.611313
    7          6             0        0.135672   -0.002537    3.888407
    8          6             0       -1.104058   -0.016270    3.233648
    9          1             0       -2.019254   -0.032958    3.825162
   10          6             0       -1.183747   -0.010521    1.831316
   11          6             0       -2.545324   -0.021585    1.205483
   12          6             0       -2.682131   -0.050104   -0.328405
   13          6             0       -2.577216   -1.494086   -0.813419
   14          1             0       -1.602224   -1.925972   -0.564992
   15          1             0       -2.699149   -1.553877   -1.900580
   16          1             0       -3.339515   -2.130985   -0.349145
   17          7             0       -4.012305    0.466091   -0.730955
   18          1             0       -1.910661    0.561245   -0.805289
   19          6             0       -4.080006    1.920531   -0.639401
   20          1             0       -4.695733    0.075383   -0.072577
   21          1             0       -3.363506    2.390538   -1.320722
   22          1             0       -3.895291    2.280980    0.377229
   23          1             0       -5.079549    2.254246   -0.935130
   24          8             0       -3.539070   -0.032046    1.937285
   25          6             0        0.201533   -0.049153    5.386555
   26          1             0        1.113445    0.433538    5.753441
   27          1             0        0.189697   -1.088450    5.729050
   28          1             0       -0.647465    0.480884    5.830848
 ---------------------------------------------------------------------
                    Distance matrix (angstroms):
                    1          2          3          4          5
     1  H    0.000000
     2  C    1.084930   0.000000
     3  C    2.129319   1.397550   0.000000
     4  H    2.442888   2.157375   1.087790   0.000000
     5  C    3.386867   2.422320   1.394550   2.152022   0.000000
     6  H    4.270713   3.402943   2.148508   2.466681   1.088210
     7  C    3.890774   2.806759   2.422294   3.405094   1.397760
     8  C    3.416971   2.415822   2.782901   3.870677   2.412919
     9  H    4.325545   3.404019   3.872700   4.960458   3.398691
    10  C    2.180616   1.399450   2.424603   3.409448   2.806027
    11  C    2.816439   2.548269   3.820615   4.702191   4.303433
    12  C    2.702626   3.032137   4.429550   5.059018   5.275843
    13  C    3.088039   3.532430   4.824183   5.337514   5.727388
    14  H    2.568210   2.999789   4.129933   4.557877   5.075099
    15  H    3.648581   4.314302   5.578230   5.940272   6.609926
    16  H    3.976853   4.213079   5.461927   6.082072   6.177669
    17  N    4.104890   4.428687   5.818660   6.465263   6.586268
    18  H    2.148048   2.745642   4.083045   4.546411   5.110547
    19  C    4.554527   4.827857   6.131966   6.765524   6.848191
    20  H    4.696899   4.836880   6.203251   6.960412   6.801120
    21  H    4.332684   4.776505   6.017821   6.501820   6.878856
    22  H    4.529731   4.569136   5.778992   6.512757   6.312009
    23  H    5.635416   5.913044   7.219140   7.859751   7.897871
    24  O    4.034739   3.640405   4.782384   5.750084   4.988905
    25  C    5.390548   4.306624   3.799343   4.668138   2.517568
    26  H    5.876206   4.818995   4.046808   4.742066   2.672313
    27  H    5.834614   4.773736   4.273491   5.103236   3.032938
    28  H    5.886361   4.813959   4.537708   5.479373   3.373199
                    6          7          8          9         10
     6  H    0.000000
     7  C    2.161929   0.000000
     8  C    3.404795   1.402080   0.000000
     9  H    4.304329   2.156069   1.089840   0.000000
    10  C    3.894107   2.443880   1.404606   2.161943   0.000000
    11  C    5.391582   3.792912   2.488118   2.672003   1.498560
    12  C    6.335815   5.071861   3.896111   4.206164   2.628900
    13  C    6.734422   5.629533   4.553338   4.895166   3.337266
    14  H    6.013193   5.152926   4.280747   4.799049   3.096186
    15  H    7.585168   6.629874   5.591855   5.963184   4.313402
    16  H    7.192611   5.879121   4.722891   4.854858   3.728018
    17  N    7.660124   6.226060   4.940511   4.997949   3.846184
    18  H    6.115480   5.151321   4.158984   4.669684   2.794102
    19  C    7.890847   6.478516   5.254329   5.291043   4.268691
    20  H    7.889008   6.248034   4.882586   4.729444   3.995777
    21  H    7.871668   6.716106   5.624955   5.844695   4.522364
    22  H    7.339409   5.813044   4.607327   4.556540   3.836381
    23  H    8.943364   7.453731   6.191808   6.103858   5.287690
    24  O    6.054833   4.160706   2.758639   2.423617   2.357804
    25  C    2.733397   1.500320   2.518067   2.714795   3.815786
    26  H    2.480149   2.150478   3.386592   3.708057   4.566984
    27  H    3.162731   2.137778   3.008389   3.101342   4.270902
    28  H    3.706997   2.149437   2.683484   2.483670   4.065136
                   11         12         13         14         15
    11  C    0.000000
    12  C    1.540240   0.000000
    13  C    2.499048   1.526870   0.000000
    14  H    2.765991   2.177396   1.094920   0.000000
    15  H    3.466872   2.175628   1.095610   1.767906   0.000000
    16  H    2.738097   2.182350   1.096490   1.762612   1.774844
    17  N    2.477832   1.482520   2.430756   3.399706   2.678185
    18  H    2.187622   1.093770   2.160728   2.517761   2.509007
    19  C    3.087176   2.436016   3.734738   4.576081   3.945738
    20  H    2.503417   2.033663   2.738648   3.717215   3.159499
    21  H    3.587404   2.721341   3.995737   4.722869   4.041784
    22  H    2.794677   2.720961   4.172061   4.883071   4.617932
    23  H    4.022925   3.380200   4.508489   5.450047   4.593495
    24  O    1.234170   2.422400   3.260230   3.687780   4.213151
    25  C    5.002735   6.401273   6.946147   6.495915   7.986269
    26  H    5.854712   7.185343   7.775626   7.270814   8.778936
    27  H    5.392699   6.783680   7.115072   6.597529   8.171493
    28  H    5.024773   6.508318   7.195188   6.900094   8.253765
                   16         17         18         19         20
    16  H    0.000000
    17  N    2.709839   0.000000
    18  H    3.081849   2.105110   0.000000
    19  C    4.128844   1.458890   2.565392   0.000000
    20  H    2.604587   1.026250   2.920541   2.026075   0.000000
    21  H    4.624793   2.114772   2.392226   1.094750   2.948328
    22  H    4.505768   2.129691   2.880034   1.094340   2.389078
    23  H    4.754087   2.092413   3.595131   1.094490   2.374607
    24  O    3.110166   2.755286   3.244291   3.277878   2.321413
    25  C    7.054879   7.446196   6.570608   7.650058   7.334906
    26  H    7.977919   8.265698   7.223466   8.369678   8.235126
    27  H    7.105398   7.861621   7.059078   8.236595   7.673383
    28  H    7.229198   7.374254   6.755771   7.464518   7.169611
                   21         22         23         24         25
    21  H    0.000000
    22  H    1.782649   0.000000
    23  H    1.764104   1.767900   0.000000
    24  O    4.063785   2.812607   3.981329   0.000000
    25  C    7.978043   6.877997   8.553314   5.088209   0.000000
    26  H    8.597483   7.576551   9.295436   6.035371   1.095070
    27  H    8.627160   7.528756   9.129615   5.421916   1.094340
    28  H    7.884707   6.597778   8.280497   4.876915   1.095050
                   26         27         28
    26  H    0.000000
    27  H    1.780548   0.000000
    28  H    1.763247   1.781576   0.000000
                           Interatomic angles:
       H1-C2-C3=117.5753       C2-C3-H4=119.9476       C2-C3-C5=120.3531
       H4-C3-C5=119.6988       C3-C5-H6=119.3385       C3-C5-C7=120.3359
       H6-C5-C7=120.3255       C5-C7-C8=119.0398       C7-C8-H9=119.2884
      H1-C2-C10=122.2316      C3-C2-C10=120.1912     C2-C10-C11=123.0838
    C10-C11-C12=119.7846    C11-C12-C13=109.1323    C12-C13-H14=111.2321
    C12-C13-H15=111.049     H14-C13-H15=107.6208    C12-C13-H16=111.5338
    H14-C13-H16=107.0908    H15-C13-H16=108.1244    C11-C12-N17=110.0999
    C13-C12-N17=107.7392    C11-C12-H18=111.1742    C13-C12-H18=109.9764
    N17-C12-H18=108.6537    C12-N17-C19=111.8219    C12-N17-H20=106.9032
    C19-N17-H20=107.9622    N17-C19-H21=111.0136    N17-C19-H22=112.2617
    H21-C19-H22=109.043     N17-C19-H23=109.2322    H21-C19-H23=107.3764
    H22-C19-H23=107.742     C10-C11-O24=118.9485    C12-C11-O24=121.2538
      C5-C7-C25=120.5754      C8-C7-C25=120.3198     C7-C25-H26=110.9412
     C7-C25-H27=109.9713    H26-C25-H27=108.8303     C7-C25-H28=110.8588
    H26-C25-H28=107.2382    H27-C25-H28=108.9243
 Stoichiometry    C11H15NO
 Framework group  C1[X(C11H15NO)]
 Deg. of freedom    78
 Full point group                 C1      NOp   1
 Largest Abelian subgroup         C1      NOp   1
 Largest concise Abelian subgroup C1      NOp   1
                         Standard orientation:                         
 ---------------------------------------------------------------------
 Center     Atomic     Atomic              Coordinates (Angstroms)
 Number     Number      Type              X           Y           Z
 ---------------------------------------------------------------------
    1          1             0        0.061987    2.127364   -0.497535
    2          6             0       -0.723056    1.391593   -0.358179
    3          6             0       -2.041664    1.805069   -0.566635
    4          1             0       -2.248966    2.832251   -0.858543
    5          6             0       -3.096453    0.908765   -0.396844
    6          1             0       -4.117402    1.250759   -0.554659
    7          6             0       -2.844946   -0.415663   -0.027566
    8          6             0       -1.521018   -0.820936    0.193338
    9          1             0       -1.321897   -1.847375    0.500788
   10          6             0       -0.451187    0.073782    0.026428
   11          6             0        0.935654   -0.435621    0.277153
   12          6             0        2.137450    0.517878    0.139802
   13          6             0        2.313493    1.292226    1.443921
   14          1             0        1.433588    1.906123    1.662434
   15          1             0        3.179602    1.961082    1.390577
   16          1             0        2.455525    0.617577    2.296544
   17          7             0        3.378731   -0.257634   -0.096137
   18          1             0        1.996426    1.213993   -0.691985
   19          6             0        3.462587   -0.742248   -1.469628
   20          1             0        3.343703   -1.073296    0.525680
   21          1             0        3.497161    0.091228   -2.178571
   22          1             0        2.625831   -1.397798   -1.729769
   23          1             0        4.386581   -1.315581   -1.593863
   24          8             0        1.087635   -1.612847    0.615112
   25          6             0       -3.977527   -1.374311    0.194276
   26          1             0       -4.834679   -1.120549   -0.438238
   27          1             0       -4.291273   -1.346082    1.242296
   28          1             0       -3.678373   -2.396688   -0.059470
 ---------------------------------------------------------------------
 Rotational constants (GHZ):      1.6228723      0.4269620      0.3847612
 Standard basis: 6-31G(d) (6D, 7F)
 There are   225 symmetry adapted basis functions of A   symmetry.
 Integral buffers will be    262144 words long.
 Raffenetti 2 integral format.
 Two-electron integral symmetry is turned on.
   225 basis functions,   424 primitive gaussians,   225 cartesian basis functions
    48 alpha electrons       48 beta electrons
       nuclear repulsion energy       770.2910760248 Hartrees.
 NAtoms=   28 NActive=   28 NUniq=   28 SFac= 1.00D+00 NAtFMM=   60 Big=F
 One-electron integrals computed using PRISM.
 NBasis=   225 RedAO= T  NBF=   225
 NBsUse=   225 1.00D-06 NBFU=   225
 Harris functional with IExCor=  402 diagonalized for initial guess.
 ExpMin= 1.61D-01 ExpMax= 5.48D+03 ExpMxC= 8.25D+02 IAcc=1 IRadAn=         1 AccDes= 1.00D-06
 HarFok:  IExCor= 402 AccDes= 1.00D-06 IRadAn=         1 IDoV=1
 ScaDFX=  1.000000  1.000000  1.000000  1.000000
 Initial guess orbital symmetries:
       Occupied  (A) (A) (A) (A) (A) (A) (A) (A) (A) (A) (A) (A)
                 (A) (A) (A) (A) (A) (A) (A) (A) (A) (A) (A) (A)
                 (A) (A) (A) (A) (A) (A) (A) (A) (A) (A) (A) (A)
                 (A) (A) (A) (A) (A) (A) (A) (A) (A) (A) (A) (A)
       Virtual   (A) (A) (A) (A) (A) (A) (A) (A) (A) (A) (A) (A)
                 (A) (A) (A) (A) (A) (A) (A) (A) (A) (A) (A) (A)
                 (A) (A) (A) (A) (A) (A) (A) (A) (A) (A) (A) (A)
                 (A) (A) (A) (A) (A) (A) (A) (A) (A) (A) (A) (A)
                 (A) (A) (A) (A) (A) (A) (A) (A) (A) (A) (A) (A)
                 (A) (A) (A) (A) (A) (A) (A) (A) (A) (A) (A) (A)
                 (A) (A) (A) (A) (A) (A) (A) (A) (A) (A) (A) (A)
                 (A) (A) (A) (A) (A) (A) (A) (A) (A) (A) (A) (A)
                 (A) (A) (A) (A) (A) (A) (A) (A) (A) (A) (A) (A)
                 (A) (A) (A) (A) (A) (A) (A) (A) (A) (A) (A) (A)
                 (A) (A) (A) (A) (A) (A) (A) (A) (A) (A) (A) (A)
                 (A) (A) (A) (A) (A) (A) (A) (A) (A) (A) (A) (A)
                 (A) (A) (A) (A) (A) (A) (A) (A) (A) (A) (A) (A)
                 (A) (A) (A) (A) (A) (A) (A) (A) (A) (A) (A) (A)
                 (A) (A) (A) (A) (A) (A) (A) (A) (A)
 The electronic state of the initial guess is 1-A.
 Requested convergence on RMS density matrix=1.00D-08 within 128 cycles.
 Requested convergence on MAX density matrix=1.00D-06.
 Requested convergence on             energy=1.00D-06.
 No special actions if energy rises.
 Integral accuracy reduced to 1.0D-05 until final iterations.
 Initial convergence to 1.0D-05 achieved.  Increase integral accuracy.
 SCF Done:  E(RB+HF-LYP) =  -558.175736823     A.U. after   15 cycles
             Convg  =    0.9113D-08             -V/T =  2.0097
             S**2   =   0.0000

 **********************************************************************

            Population analysis using the SCF density.

 **********************************************************************

 Orbital symmetries:
       Occupied  (A) (A) (A) (A) (A) (A) (A) (A) (A) (A) (A) (A)
                 (A) (A) (A) (A) (A) (A) (A) (A) (A) (A) (A) (A)
                 (A) (A) (A) (A) (A) (A) (A) (A) (A) (A) (A) (A)
                 (A) (A) (A) (A) (A) (A) (A) (A) (A) (A) (A) (A)
       Virtual   (A) (A) (A) (A) (A) (A) (A) (A) (A) (A) (A) (A)
                 (A) (A) (A) (A) (A) (A) (A) (A) (A) (A) (A) (A)
                 (A) (A) (A) (A) (A) (A) (A) (A) (A) (A) (A) (A)
                 (A) (A) (A) (A) (A) (A) (A) (A) (A) (A) (A) (A)
                 (A) (A) (A) (A) (A) (A) (A) (A) (A) (A) (A) (A)
                 (A) (A) (A) (A) (A) (A) (A) (A) (A) (A) (A) (A)
                 (A) (A) (A) (A) (A) (A) (A) (A) (A) (A) (A) (A)
                 (A) (A) (A) (A) (A) (A) (A) (A) (A) (A) (A) (A)
                 (A) (A) (A) (A) (A) (A) (A) (A) (A) (A) (A) (A)
                 (A) (A) (A) (A) (A) (A) (A) (A) (A) (A) (A) (A)
                 (A) (A) (A) (A) (A) (A) (A) (A) (A) (A) (A) (A)
                 (A) (A) (A) (A) (A) (A) (A) (A) (A) (A) (A) (A)
                 (A) (A) (A) (A) (A) (A) (A) (A) (A) (A) (A) (A)
                 (A) (A) (A) (A) (A) (A) (A) (A) (A) (A) (A) (A)
                 (A) (A) (A) (A) (A) (A) (A) (A) (A)
 The electronic state is 1-A.
 Alpha  occ. eigenvalues --  -19.13963 -14.30865 -10.27262 -10.21942 -10.20464
 Alpha  occ. eigenvalues --  -10.20254 -10.20178 -10.19987 -10.19931 -10.19453
 Alpha  occ. eigenvalues --  -10.19145 -10.18765 -10.17942  -1.03335  -0.89325
 Alpha  occ. eigenvalues --   -0.86524  -0.78762  -0.76412  -0.75046  -0.69265
 Alpha  occ. eigenvalues --   -0.65702  -0.64988  -0.60385  -0.59810  -0.54038
 Alpha  occ. eigenvalues --   -0.51925  -0.48531  -0.47024  -0.45150  -0.44611
 Alpha  occ. eigenvalues --   -0.43866  -0.43092  -0.42593  -0.42190  -0.41188
 Alpha  occ. eigenvalues --   -0.39473  -0.38771  -0.37725  -0.37269  -0.35772
 Alpha  occ. eigenvalues --   -0.35648  -0.35052  -0.34458  -0.33779  -0.25779
 Alpha  occ. eigenvalues --   -0.25528  -0.25040  -0.21476
 Alpha virt. eigenvalues --   -0.05827  -0.00893   0.03754   0.08509   0.10485
 Alpha virt. eigenvalues --    0.11527   0.12453   0.12594   0.14175   0.15153
 Alpha virt. eigenvalues --    0.16072   0.16118   0.16842   0.17308   0.17796
 Alpha virt. eigenvalues --    0.18207   0.18746   0.19889   0.20953   0.23137
 Alpha virt. eigenvalues --    0.23535   0.24458   0.25563   0.26355   0.28677
 Alpha virt. eigenvalues --    0.31567   0.32765   0.34369   0.37951   0.40579
 Alpha virt. eigenvalues --    0.45438   0.49831   0.50946   0.51411   0.52528
 Alpha virt. eigenvalues --    0.52655   0.54102   0.55358   0.55945   0.56907
 Alpha virt. eigenvalues --    0.58285   0.59231   0.60188   0.60490   0.61143
 Alpha virt. eigenvalues --    0.61550   0.62672   0.64505   0.65585   0.67717
 Alpha virt. eigenvalues --    0.68701   0.70286   0.72065   0.73215   0.74933
 Alpha virt. eigenvalues --    0.77360   0.77525   0.79083   0.80336   0.81081
 Alpha virt. eigenvalues --    0.81883   0.83270   0.84461   0.85132   0.86821
 Alpha virt. eigenvalues --    0.88103   0.88932   0.89687   0.90036   0.90744
 Alpha virt. eigenvalues --    0.91581   0.93834   0.94344   0.95405   0.96296
 Alpha virt. eigenvalues --    0.97404   0.98422   0.98750   0.99614   1.02996
 Alpha virt. eigenvalues --    1.04197   1.04782   1.07696   1.09589   1.12484
 Alpha virt. eigenvalues --    1.16339   1.18016   1.20890   1.22824   1.25184
 Alpha virt. eigenvalues --    1.29321   1.33491   1.34819   1.35676   1.38729
 Alpha virt. eigenvalues --    1.40254   1.44127   1.45006   1.46042   1.48360
 Alpha virt. eigenvalues --    1.48662   1.49303   1.54047   1.56860   1.62492
 Alpha virt. eigenvalues --    1.68091   1.69159   1.73290   1.74185   1.79232
 Alpha virt. eigenvalues --    1.80490   1.81521   1.86350   1.87102   1.88289
 Alpha virt. eigenvalues --    1.89384   1.90533   1.91730   1.93673   1.95371
 Alpha virt. eigenvalues --    1.97384   1.98298   2.00990   2.02783   2.05871
 Alpha virt. eigenvalues --    2.06075   2.08203   2.09784   2.11785   2.14037
 Alpha virt. eigenvalues --    2.14652   2.17877   2.20266   2.21803   2.25444
 Alpha virt. eigenvalues --    2.26173   2.28680   2.29703   2.30087   2.31000
 Alpha virt. eigenvalues --    2.34128   2.35913   2.38395   2.39769   2.42531
 Alpha virt. eigenvalues --    2.43717   2.48747   2.54045   2.58715   2.60123
 Alpha virt. eigenvalues --    2.63640   2.67353   2.67604   2.68630   2.75283
 Alpha virt. eigenvalues --    2.77830   2.79597   2.84900   2.88135   2.92497
 Alpha virt. eigenvalues --    2.98742   3.01239   3.17152   3.41440   3.94946
 Alpha virt. eigenvalues --    4.04283   4.08387   4.11270   4.14320   4.23011
 Alpha virt. eigenvalues --    4.25460   4.27120   4.33415   4.39778   4.44642
 Alpha virt. eigenvalues --    4.61370   4.73896
          Condensed to atoms (all electrons):
              1          2          3          4          5          6
     1  H    0.588655   0.352081  -0.044189  -0.005128   0.004512  -0.000190
     2  C    0.352081   5.046797   0.518145  -0.038500  -0.041761   0.004995
     3  C   -0.044189   0.518145   4.886696   0.355366   0.525852  -0.045497
     4  H   -0.005128  -0.038500   0.355366   0.589907  -0.038483  -0.005229
     5  C    0.004512  -0.041761   0.525852  -0.038483   4.941950   0.357041
     6  H   -0.000190   0.004995  -0.045497  -0.005229   0.357041   0.601220
     7  C    0.000581  -0.034099  -0.016614   0.003516   0.544661  -0.045344
     8  C    0.005408  -0.086312  -0.047493   0.001089  -0.031101   0.005600
     9  H   -0.000140   0.005857   0.000070   0.000019   0.005583  -0.000149
    10  C   -0.039295   0.501608  -0.008481   0.003111  -0.039305   0.000442
    11  C   -0.010305  -0.043900   0.004978  -0.000130   0.000674   0.000010
    12  C    0.005332  -0.005854  -0.000066   0.000012  -0.000016   0.000000
    13  C   -0.000512  -0.002526  -0.000011  -0.000002   0.000002   0.000000
    14  H    0.001475   0.002935   0.000032  -0.000003  -0.000002   0.000000
    15  H    0.000115   0.000029  -0.000001   0.000000   0.000000   0.000000
    16  H   -0.000057  -0.000041   0.000005   0.000000   0.000000   0.000000
    17  N   -0.000006  -0.000048  -0.000004   0.000000   0.000000   0.000000
    18  H    0.002540   0.002078   0.000309  -0.000005  -0.000003   0.000000
    19  C   -0.000014   0.000012   0.000000   0.000000   0.000000   0.000000
    20  H   -0.000005  -0.000025   0.000001   0.000000   0.000000   0.000000
    21  H   -0.000009  -0.000020   0.000000   0.000000   0.000000   0.000000
    22  H   -0.000002  -0.000002   0.000002   0.000000   0.000000   0.000000
    23  H    0.000000   0.000000   0.000000   0.000000   0.000000   0.000000
    24  O    0.000025   0.004504  -0.000065   0.000000  -0.000009   0.000000
    25  C    0.000010   0.000847   0.007012  -0.000200  -0.066017  -0.009137
    26  H    0.000000  -0.000003   0.000163  -0.000006  -0.003358   0.005059
    27  H    0.000000   0.000042  -0.000175   0.000003  -0.001691   0.000537
    28  H    0.000000   0.000003  -0.000192   0.000003   0.003226   0.000049
              7          8          9         10         11         12
     1  H    0.000581   0.005408  -0.000140  -0.039295  -0.010305   0.005332
     2  C   -0.034099  -0.086312   0.005857   0.501608  -0.043900  -0.005854
     3  C   -0.016614  -0.047493   0.000070  -0.008481   0.004978  -0.000066
     4  H    0.003516   0.001089   0.000019   0.003111  -0.000130   0.000012
     5  C    0.544661  -0.031101   0.005583  -0.039305   0.000674  -0.000016
     6  H   -0.045344   0.005600  -0.000149   0.000442   0.000010   0.000000
     7  C    4.683057   0.490538  -0.047071  -0.018411   0.005981  -0.000018
     8  C    0.490538   5.129636   0.354023   0.460229  -0.023590   0.009770
     9  H   -0.047071   0.354023   0.562949  -0.043760  -0.010356   0.000635
    10  C   -0.018411   0.460229  -0.043760   5.036174   0.240732  -0.097630
    11  C    0.005981  -0.023590  -0.010356   0.240732   4.762405   0.272975
    12  C   -0.000018   0.009770   0.000635  -0.097630   0.272975   5.112978
    13  C    0.000003  -0.000289  -0.000018   0.003264  -0.043409   0.354926
    14  H   -0.000009  -0.000081  -0.000001   0.000796   0.001832  -0.033576
    15  H    0.000000   0.000009   0.000000  -0.000224   0.004237  -0.024910
    16  H   -0.000001  -0.000026  -0.000007   0.000276  -0.005309  -0.030750
    17  N    0.000000  -0.000088  -0.000002   0.006037  -0.050727   0.336007
    18  H   -0.000004  -0.000401  -0.000024  -0.001278  -0.037675   0.363377
    19  C    0.000000   0.000002  -0.000001   0.000003   0.000712  -0.058033
    20  H    0.000000  -0.000045  -0.000014   0.001348  -0.008424  -0.047727
    21  H    0.000000   0.000000   0.000000   0.000068  -0.000905  -0.006637
    22  H   -0.000001   0.000020   0.000002  -0.001292   0.008417  -0.007092
    23  H    0.000000   0.000000   0.000000   0.000013  -0.000143   0.005469
    24  O    0.001319  -0.000316   0.017569  -0.093355   0.538014  -0.086917
    25  C    0.351098  -0.058655  -0.007890   0.005920  -0.000236   0.000001
    26  H   -0.029778   0.003285   0.000009  -0.000128   0.000002   0.000000
    27  H   -0.027184  -0.002335   0.000584  -0.000165   0.000002   0.000000
    28  H   -0.028052  -0.003105   0.004606   0.000069   0.000008   0.000000
             13         14         15         16         17         18
     1  H   -0.000512   0.001475   0.000115  -0.000057  -0.000006   0.002540
     2  C   -0.002526   0.002935   0.000029  -0.000041  -0.000048   0.002078
     3  C   -0.000011   0.000032  -0.000001   0.000005  -0.000004   0.000309
     4  H   -0.000002  -0.000003   0.000000   0.000000   0.000000  -0.000005
     5  C    0.000002  -0.000002   0.000000   0.000000   0.000000  -0.000003
     6  H    0.000000   0.000000   0.000000   0.000000   0.000000   0.000000
     7  C    0.000003  -0.000009   0.000000  -0.000001   0.000000  -0.000004
     8  C   -0.000289  -0.000081   0.000009  -0.000026  -0.000088  -0.000401
     9  H   -0.000018  -0.000001   0.000000  -0.000007  -0.000002  -0.000024
    10  C    0.003264   0.000796  -0.000224   0.000276   0.006037  -0.001278
    11  C   -0.043409   0.001832   0.004237  -0.005309  -0.050727  -0.037675
    12  C    0.354926  -0.033576  -0.024910  -0.030750   0.336007   0.363377
    13  C    5.132331   0.353822   0.368343   0.373384  -0.060937  -0.037312
    14  H    0.353822   0.585180  -0.026999  -0.029820   0.004814  -0.003580
    15  H    0.368343  -0.026999   0.541392  -0.027129   0.002516  -0.004362
    16  H    0.373384  -0.029820  -0.027129   0.553912  -0.003916   0.005351
    17  N   -0.060937   0.004814   0.002516  -0.003916   6.861351  -0.042452
    18  H   -0.037312  -0.003580  -0.004362   0.005351  -0.042452   0.601126
    19  C    0.006054  -0.000208   0.000005  -0.000026   0.315915  -0.004383
    20  H   -0.000715  -0.000248  -0.000598   0.004173   0.298997   0.006976
    21  H    0.000249  -0.000015  -0.000036   0.000005  -0.039508   0.006995
    22  H   -0.000125   0.000027   0.000026  -0.000004  -0.050468  -0.001061
    23  H   -0.000223   0.000003  -0.000019   0.000006  -0.034992   0.000050
    24  O   -0.002690   0.000067  -0.000031   0.002268  -0.013946   0.002421
    25  C    0.000000   0.000000   0.000000   0.000000   0.000000   0.000000
    26  H    0.000000   0.000000   0.000000   0.000000   0.000000   0.000000
    27  H    0.000000   0.000000   0.000000   0.000000   0.000000   0.000000
    28  H    0.000000   0.000000   0.000000   0.000000   0.000000   0.000000
             19         20         21         22         23         24
     1  H   -0.000014  -0.000005  -0.000009  -0.000002   0.000000   0.000025
     2  C    0.000012  -0.000025  -0.000020  -0.000002   0.000000   0.004504
     3  C    0.000000   0.000001   0.000000   0.000002   0.000000  -0.000065
     4  H    0.000000   0.000000   0.000000   0.000000   0.000000   0.000000
     5  C    0.000000   0.000000   0.000000   0.000000   0.000000  -0.000009
     6  H    0.000000   0.000000   0.000000   0.000000   0.000000   0.000000
     7  C    0.000000   0.000000   0.000000  -0.000001   0.000000   0.001319
     8  C    0.000002  -0.000045   0.000000   0.000020   0.000000  -0.000316
     9  H   -0.000001  -0.000014   0.000000   0.000002   0.000000   0.017569
    10  C    0.000003   0.001348   0.000068  -0.001292   0.000013  -0.093355
    11  C    0.000712  -0.008424  -0.000905   0.008417  -0.000143   0.538014
    12  C   -0.058033  -0.047727  -0.006637  -0.007092   0.005469  -0.086917
    13  C    0.006054  -0.000715   0.000249  -0.000125  -0.000223  -0.002690
    14  H   -0.000208  -0.000248  -0.000015   0.000027   0.000003   0.000067
    15  H    0.000005  -0.000598  -0.000036   0.000026  -0.000019  -0.000031
    16  H   -0.000026   0.004173   0.000005  -0.000004   0.000006   0.002268
    17  N    0.315915   0.298997  -0.039508  -0.050468  -0.034992  -0.013946
    18  H   -0.004383   0.006976   0.006995  -0.001061   0.000050   0.002421
    19  C    4.964681  -0.037272   0.381051   0.360312   0.382730  -0.001556
    20  H   -0.037272   0.454324   0.005723  -0.004570  -0.002771   0.022943
    21  H    0.381051   0.005723   0.580157  -0.043961  -0.027439   0.000065
    22  H    0.360312  -0.004570  -0.043961   0.638693  -0.038856   0.004952
    23  H    0.382730  -0.002771  -0.027439  -0.038856   0.566769  -0.000019
    24  O   -0.001556   0.022943   0.000065   0.004952  -0.000019   8.087696
    25  C    0.000000   0.000000   0.000000   0.000000   0.000000  -0.000005
    26  H    0.000000   0.000000   0.000000   0.000000   0.000000   0.000000
    27  H    0.000000   0.000000   0.000000   0.000000   0.000000   0.000000
    28  H    0.000000   0.000000   0.000000   0.000000   0.000000  -0.000002
             25         26         27         28
     1  H    0.000010   0.000000   0.000000   0.000000
     2  C    0.000847  -0.000003   0.000042   0.000003
     3  C    0.007012   0.000163  -0.000175  -0.000192
     4  H   -0.000200  -0.000006   0.000003   0.000003
     5  C   -0.066017  -0.003358  -0.001691   0.003226
     6  H   -0.009137   0.005059   0.000537   0.000049
     7  C    0.351098  -0.029778  -0.027184  -0.028052
     8  C   -0.058655   0.003285  -0.002335  -0.003105
     9  H   -0.007890   0.000009   0.000584   0.004606
    10  C    0.005920  -0.000128  -0.000165   0.000069
    11  C   -0.000236   0.000002   0.000002   0.000008
    12  C    0.000001   0.000000   0.000000   0.000000
    13  C    0.000000   0.000000   0.000000   0.000000
    14  H    0.000000   0.000000   0.000000   0.000000
    15  H    0.000000   0.000000   0.000000   0.000000
    16  H    0.000000   0.000000   0.000000   0.000000
    17  N    0.000000   0.000000   0.000000   0.000000
    18  H    0.000000   0.000000   0.000000   0.000000
    19  C    0.000000   0.000000   0.000000   0.000000
    20  H    0.000000   0.000000   0.000000   0.000000
    21  H    0.000000   0.000000   0.000000   0.000000
    22  H    0.000000   0.000000   0.000000   0.000000
    23  H    0.000000   0.000000   0.000000   0.000000
    24  O   -0.000005   0.000000   0.000000  -0.000002
    25  C    5.208250   0.365075   0.364569   0.365369
    26  H    0.365075   0.559916  -0.028191  -0.028245
    27  H    0.364569  -0.028191   0.549569  -0.027288
    28  H    0.365369  -0.028245  -0.027288   0.549803
 Mulliken atomic charges:
              1
     1  H    0.139120
     2  C   -0.186845
     3  C   -0.135841
     4  H    0.134660
     5  C   -0.161757
     6  H    0.130593
     7  C    0.165833
     8  C   -0.205772
     9  H    0.157526
    10  C    0.083235
    11  C    0.394130
    12  C   -0.062254
    13  C   -0.443609
    14  H    0.143560
    15  H    0.167636
    16  H    0.157708
    17  N   -0.528544
    18  H    0.141319
    19  C   -0.309984
    20  H    0.307932
    21  H    0.144220
    22  H    0.134984
    23  H    0.149425
    24  O   -0.482931
    25  C   -0.526012
    26  H    0.156200
    27  H    0.171724
    28  H    0.163748
 Sum of Mulliken charges=   0.00000
 Atomic charges with hydrogens summed into heavy atoms:
              1
     1  H    0.000000
     2  C   -0.047726
     3  C   -0.001181
     4  H    0.000000
     5  C   -0.031165
     6  H    0.000000
     7  C    0.165833
     8  C   -0.048246
     9  H    0.000000
    10  C    0.083235
    11  C    0.394130
    12  C    0.079065
    13  C    0.025294
    14  H    0.000000
    15  H    0.000000
    16  H    0.000000
    17  N   -0.220612
    18  H    0.000000
    19  C    0.118645
    20  H    0.000000
    21  H    0.000000
    22  H    0.000000
    23  H    0.000000
    24  O   -0.482931
    25  C   -0.034340
    26  H    0.000000
    27  H    0.000000
    28  H    0.000000
 Sum of Mulliken charges=   0.00000
 Electronic spatial extent (au):  <R**2>=  3060.5040
 Charge=     0.0000 electrons
 Dipole moment (field-independent basis, Debye):
    X=    -2.3864    Y=     1.6599    Z=    -0.6818  Tot=     2.9858
 Quadrupole moment (field-independent basis, Debye-Ang):
   XX=   -75.5048   YY=   -76.3074   ZZ=   -78.2937
   XY=     0.6337   XZ=    -0.9775   YZ=    -0.3377
 Traceless Quadrupole moment (field-independent basis, Debye-Ang):
   XX=     1.1972   YY=     0.3945   ZZ=    -1.5917
   XY=     0.6337   XZ=    -0.9775   YZ=    -0.3377
 Octapole moment (field-independent basis, Debye-Ang**2):
  XXX=   -46.6625  YYY=     4.7388  ZZZ=     5.6132  XYY=    -2.1683
  XXY=   -11.4406  XXZ=    -4.7731  XZZ=    11.4666  YZZ=    -2.7973
  YYZ=    -5.0421  XYZ=     4.9069
 Hexadecapole moment (field-independent basis, Debye-Ang**3):
 XXXX= -3085.2604 YYYY=  -671.9923 ZZZZ=  -355.7279 XXXY=   -65.0160
 XXXZ=    -2.8178 YYYX=    -6.0325 YYYZ=   -10.2426 ZZZX=    -4.6173
 ZZZY=    -5.8847 XXYY=  -591.9210 XXZZ=  -558.5820 YYZZ=  -176.7235
 XXYZ=    -8.8717 YYXZ=     4.7326 ZZXY=     0.4138
 N-N= 7.702910760248D+02 E-N=-2.836181877892D+03  KE= 5.528288082812D+02
 ***** Axes restored to original set *****
 -------------------------------------------------------------------
 Center     Atomic                   Forces (Hartrees/Bohr)
 Number     Number              X              Y              Z
 -------------------------------------------------------------------
    1          1          -0.003042104    0.000316172   -0.000114261
    2          6           0.009059774    0.000079303   -0.000770330
    3          6          -0.001020682   -0.000720282   -0.000865088
    4          1          -0.000977913    0.000105138   -0.000131559
    5          6           0.000860294    0.001073325   -0.005692612
    6          1          -0.000944648    0.000565610    0.001010328
    7          6          -0.006321649   -0.002201661   -0.002834415
    8          6           0.006718559    0.000983408    0.002994033
    9          1           0.001094789    0.000570726   -0.004231884
   10          6          -0.003591049   -0.001008662    0.001662690
   11          6           0.001341178    0.001642286    0.016347659
   12          6          -0.028038139   -0.000348665    0.001374791
   13          6           0.008340266   -0.010016531   -0.002374671
   14          1           0.001032358   -0.001348101    0.000766993
   15          1          -0.001564497    0.002915583    0.001391112
   16          1          -0.000969410    0.002334247    0.000259729
   17          7           0.010219660   -0.001500151   -0.004203009
   18          1          -0.000779306    0.001033450    0.000575609
   19          6          -0.006361041   -0.000056386    0.001945970
   20          1           0.004747531    0.001384754   -0.002597528
   21          1           0.001329098   -0.001559216   -0.000671556
   22          1           0.001835483    0.006331751    0.003734020
   23          1          -0.000748917    0.000191642   -0.000485138
   24          8           0.007480781   -0.000540668   -0.016064705
   25          6           0.000155781    0.005122220    0.002168520
   26          1           0.000792685   -0.002240388    0.001354047
   27          1           0.000044760   -0.000581913    0.004019194
   28          1          -0.000693644   -0.002526990    0.001432058
 -------------------------------------------------------------------
 Cartesian Forces:  Max     0.028038139 RMS     0.005090864
 ------------------------------------------------------------------------
           Internal Coordinate Forces (Hartree/Bohr or radian)
 Cent Atom N1     Length/X     N2     Alpha/Y      N3      Beta/Z       J
 ------------------------------------------------------------------------
   1  H 
   2  C     1   0.000114(   1)
   3  C     2  -0.000618(   2)  1   0.000944(  28)
   4  H     3  -0.000754(   3)  2  -0.001308(  29)  1   0.000188(  54)  0
   5  C     3   0.000298(   4)  2  -0.003717(  30)  1  -0.001483(  55)  0
   6  H     5  -0.000398(   5)  3   0.002726(  31)  2   0.001011(  56)  0
   7  C     5   0.001175(   6)  3  -0.005453(  32)  2  -0.002107(  57)  0
   8  C     7  -0.006346(   7)  5  -0.018612(  33)  3  -0.003674(  58)  0
   9  H     8  -0.003225(   8)  7   0.006093(  34)  5   0.000951(  59)  0
  10  C     2   0.005734(   9)  1  -0.004998(  35)  3   0.000354(  60)  0
  11  C    10   0.001937(  10)  2  -0.000634(  36)  1  -0.000322(  61)  0
  12  C    11   0.001268(  11) 10   0.016675(  37)  2   0.001705(  62)  0
  13  C    12   0.006239(  12) 11  -0.003588(  38) 10  -0.010110(  63)  0
  14  H    13   0.001625(  13) 12   0.001140(  39) 11   0.001400(  64)  0
  15  H    13  -0.001365(  14) 12  -0.006248(  40) 11  -0.002672(  65)  0
  16  H    13  -0.000572(  15) 12  -0.004782(  41) 11   0.001727(  66)  0
  17  N    12  -0.007602(  16) 11   0.008987(  42) 10   0.013162(  67)  0
  18  H    12  -0.000223(  17) 11  -0.000981(  43) 10  -0.002536(  68)  0
  19  C    17   0.005360(  18) 12   0.007768(  44) 11  -0.001131(  69)  0
  20  H    17  -0.005355(  19) 12  -0.003071(  45) 11   0.000247(  70)  0
  21  H    19   0.000618(  20) 17  -0.004166(  46) 12  -0.000885(  71)  0
  22  H    19   0.005864(  21) 17   0.009475(  47) 12   0.002723(  72)  0
  23  H    19   0.000873(  22) 17  -0.000202(  48) 12  -0.000480(  73)  0
  24  O    11  -0.015544(  23) 10   0.019829(  49)  2  -0.001307(  74)  0
  25  C     7   0.008981(  24)  5   0.000241(  50)  3   0.001249(  75)  0
  26  H    25   0.000126(  25)  7   0.003127(  51)  5  -0.004399(  76)  0
  27  H    25   0.001810(  26)  7   0.007515(  52)  5  -0.000233(  77)  0
  28  H    25  -0.000104(  27)  7   0.003355(  53)  5   0.004845(  78)  0
 ------------------------------------------------------------------------
 Internal  Forces:  Max     0.019829258 RMS     0.005698398

 GradGradGradGradGradGradGradGradGradGradGradGradGradGradGradGradGradGrad
 Berny optimization.
 Search for a local minimum.
 Step number   1 out of a maximum of  88
 All quantities printed in internal units (Hartrees-Bohrs-Radians)
 Second derivative matrix not updated -- first step.
     Eigenvalues ---    0.00431   0.01142   0.01334   0.01430   0.01576
     Eigenvalues ---    0.01679   0.02841   0.03472   0.06239   0.09446
     Eigenvalues ---    0.09906   0.11671   0.13215   0.13245   0.13292
     Eigenvalues ---    0.13455   0.13522   0.13782   0.15910   0.16001
     Eigenvalues ---    0.18671   0.19137   0.19904   0.20766   0.21290
     Eigenvalues ---    0.23025   0.25000   0.25346   0.28498   0.28775
     Eigenvalues ---    0.28925   0.29714   0.32344   0.32529   0.33658
     Eigenvalues ---    0.33885   0.34073   0.34172   0.34233   0.34236
     Eigenvalues ---    0.34250   0.34269   0.34283   0.34299   0.34316
     Eigenvalues ---    0.34316   0.34381   0.34400   0.34831   0.35020
     Eigenvalues ---    0.35069   0.35405   0.36302   0.37104   0.38726
     Eigenvalues ---    0.38792   0.39179   0.39324   0.39395   0.39436
     Eigenvalues ---    0.39567   0.40840   0.41152   0.42613   0.43356
     Eigenvalues ---    0.45571   0.45835   0.46203   0.48226   0.50003
     Eigenvalues ---    0.57059   0.57224   0.74987   0.79404   0.89371
     Eigenvalues ---    2.25985   4.13746  28.35472
 RFO step:  Lambda=-5.65464866D-03.
 Linear search not attempted -- first point.
 Variable       Old X    -DE/DX   Delta X   Delta X   Delta X     New X
                                 (Linear)    (Quad)   (Total)
    B1        2.05022   0.00011   0.00000   0.00032   0.00032   2.05054
    B2        2.64099  -0.00062   0.00000  -0.00609  -0.00609   2.63490
    A2        2.05208   0.00094   0.00000   0.01954   0.01954   2.07162
    B3        2.05563  -0.00075   0.00000  -0.00212  -0.00212   2.05351
    A3        2.09348  -0.00131   0.00000  -0.00304  -0.00304   2.09044
    D3        0.00100   0.00019   0.00000   0.00006   0.00006   0.00106
    B4        2.63532   0.00030   0.00000   0.00207   0.00207   2.63739
    A4        2.10056  -0.00372   0.00000  -0.00196  -0.00196   2.09859
    D4        3.14745  -0.00148   0.00000  -0.00637  -0.00637   3.14108
    B5        2.05642  -0.00040   0.00000  -0.00112  -0.00112   2.05530
    A5        2.08285   0.00273   0.00000   0.00336   0.00336   2.08621
    D5        3.13188   0.00101   0.00000   0.01198   0.01198   3.14385
    B6        2.64138   0.00117   0.00000   0.00876   0.00876   2.65014
    A6        2.10026  -0.00545   0.00000   0.01020   0.01020   2.11046
    D6        6.27354  -0.00211   0.00000   0.01019   0.01019   6.28373
    B7        2.64955  -0.00635   0.00000  -0.00902  -0.00902   2.64053
    A7        2.07764  -0.01861   0.00000  -0.01574  -0.01574   2.06190
    D7        0.02073  -0.00367   0.00000  -0.02086  -0.02086  -0.00013
    B8        2.05950  -0.00322   0.00000  -0.00911  -0.00911   2.05039
    A8        2.08197   0.00609   0.00000   0.01263   0.01263   2.09460
    D8        3.12040   0.00095   0.00000   0.02217   0.02217   3.14257
    B9        2.64458   0.00573   0.00000   0.00608   0.00608   2.65066
    A9        2.13334  -0.00500   0.00000  -0.01626  -0.01626   2.11708
    D9        3.15048   0.00035   0.00000  -0.00815  -0.00815   3.14233
   B10        2.83187   0.00194   0.00000   0.00585   0.00585   2.83772
   A10        2.14822  -0.00063   0.00000  -0.00059  -0.00059   2.14762
   D10        6.28236  -0.00032   0.00000  -0.00123  -0.00123   6.28113
   B11        2.91063   0.00127   0.00000   0.00436   0.00436   2.91499
   A11        2.09064   0.01667   0.00000   0.01786   0.01786   2.10849
   D11        0.02127   0.00170   0.00000   0.02372   0.02372   0.04500
   B12        2.88537   0.00624   0.00000   0.02060   0.02060   2.90597
   A12        1.90472  -0.00359   0.00000  -0.00036  -0.00036   1.90436
   D12        1.46621  -0.01011   0.00000  -0.02324  -0.02324   1.44298
   B13        2.06910   0.00163   0.00000   0.00467   0.00467   2.07377
   A13        1.94137   0.00114   0.00000   0.02208   0.02208   1.96345
   D13        5.20495   0.00140   0.00000   0.03748   0.03748   5.24243
   B14        2.07040  -0.00137   0.00000  -0.00393  -0.00393   2.06647
   A14        1.93817  -0.00625   0.00000  -0.02715  -0.02715   1.91102
   D14        3.11344  -0.00267   0.00000   0.01622   0.01622   3.12966
   B15        2.07207  -0.00057   0.00000  -0.00165  -0.00165   2.07041
   A15        1.94663  -0.00478   0.00000  -0.02306  -0.02306   1.92357
   D15        1.00724   0.00173   0.00000   0.04984   0.04984   1.05707
   B16        2.80156  -0.00760   0.00000  -0.02182  -0.02182   2.77974
   A16        1.92161   0.00899   0.00000   0.03999   0.03999   1.96160
   D16        3.52672   0.01316   0.00000   0.04685   0.04685   3.57357
   B17        2.06693  -0.00022   0.00000  -0.00064  -0.00064   2.06629
   A17        1.94036  -0.00098   0.00000  -0.02891  -0.02891   1.91144
   D17        5.62922  -0.00254   0.00000   0.01116   0.01116   5.64038
   B18        2.75690   0.00536   0.00000   0.01423   0.01423   2.77113
   A18        1.95166   0.00777   0.00000   0.02844   0.02844   1.98010
   D18        1.33392  -0.00113   0.00000  -0.04102  -0.04102   1.29290
   B19        1.93933  -0.00536   0.00000  -0.01219  -0.01219   1.92714
   A19        1.86581  -0.00307   0.00000  -0.02280  -0.02280   1.84302
   D19        5.55830   0.00025   0.00000  -0.03586  -0.03586   5.52244
   B20        2.06878   0.00062   0.00000   0.00178   0.00178   2.07055
   A20        1.93755  -0.00417   0.00000  -0.03382  -0.03382   1.90373
   D20        1.08836  -0.00089   0.00000   0.03019   0.03019   1.11855
   B21        2.06800   0.00586   0.00000   0.01681   0.01681   2.08481
   A21        1.95934   0.00947   0.00000   0.04982   0.04982   2.00916
   D21        5.23634   0.00272   0.00000   0.03778   0.03778   5.27411
   B22        2.06829   0.00087   0.00000   0.00251   0.00251   2.07079
   A22        1.90646  -0.00020   0.00000  -0.00181  -0.00181   1.90465
   D22        3.15168  -0.00048   0.00000   0.00622   0.00622   3.15789
   B23        2.33224  -0.01554   0.00000  -0.01728  -0.01728   2.31496
   A23        2.07604   0.01983   0.00000   0.03020   0.03020   2.10624
   D23        3.14015  -0.00131   0.00000   0.00060   0.00060   3.14075
   B24        2.83519   0.00898   0.00000   0.02729   0.02729   2.86248
   A24        2.10444   0.00024   0.00000   0.00866   0.00866   2.11310
   D24        3.11133   0.00125   0.00000   0.00103   0.00103   3.11236
   B25        2.06938   0.00013   0.00000   0.00036   0.00036   2.06975
   A25        1.93629   0.00313   0.00000   0.01061   0.01061   1.94689
   D25        0.52743  -0.00440   0.00000  -0.01625  -0.01625   0.51119
   B26        2.06800   0.00181   0.00000   0.00519   0.00519   2.07319
   A26        1.91936   0.00751   0.00000   0.01929   0.01929   1.93866
   D26        4.70838  -0.00023   0.00000  -0.00530  -0.00530   4.70308
   B27        2.06934  -0.00010   0.00000  -0.00030  -0.00030   2.06904
   A27        1.93485   0.00336   0.00000   0.01089   0.01089   1.94574
   D27        2.60502   0.00484   0.00000   0.00823   0.00823   2.61325
         Item               Value     Threshold  Converged?
 Maximum Force            0.019829     0.000450     NO 
 RMS     Force            0.005698     0.000300     NO 
 Maximum Displacement     0.049836     0.001800     NO 
 RMS     Displacement     0.019559     0.001200     NO 
 Predicted change in Energy=-2.911688D-03
 GradGradGradGradGradGradGradGradGradGradGradGradGradGradGradGradGradGrad

 ------------------------------------------------------------------------
                         Z-MATRIX (ANGSTROMS AND DEGREES)
 CD Cent Atom  N1     Length/X     N2    Alpha/Y     N3     Beta/Z      J
 ------------------------------------------------------------------------
   1   1  H 
   2   2  C     1   1.085098(  1)
   3   3  C     2   1.394328(  2)   1  118.695( 28)
   4   4  H     3   1.086670(  3)   2  119.774( 29)   1    0.061( 54)   0
   5   5  C     3   1.395648(  4)   2  120.241( 30)   1  179.970( 55)   0
   6   6  H     5   1.087618(  5)   3  119.531( 31)   2  180.130( 56)   0
   7   7  C     5   1.402395(  6)   3  120.921( 32)   2  360.031( 57)   0
   8   8  C     7   1.397309(  7)   5  118.138( 33)   3   -0.008( 58)   0
   9   9  H     8   1.085019(  8)   7  120.012( 34)   5  180.056( 59)   0
  10  10  C     2   1.402667(  9)   1  121.300( 35)   3  180.042( 60)   0
  11  11  C    10   1.501657( 10)   2  123.050( 36)   1  359.882( 61)   0
  12  12  C    11   1.542548( 11)  10  120.808( 37)   2    2.578( 62)   0
  13  13  C    12   1.537774( 12)  11  109.112( 38)  10   82.677( 63)   0
  14  14  H    13   1.097390( 13)  12  112.497( 39)  11  300.369( 64)   0
  15  15  H    13   1.093530( 14)  12  109.493( 40)  11  179.316( 65)   0
  16  16  H    13   1.095616( 15)  12  110.212( 41)  11   60.566( 66)   0
  17  17  N    12   1.470976( 16)  11  112.391( 42)  10  204.750( 67)   0
  18  18  H    12   1.093432( 17)  11  109.518( 43)  10  323.170( 68)   0
  19  19  C    17   1.466419( 18)  12  113.451( 44)  11   74.078( 69)   0
  20  20  H    17   1.019798( 19)  12  105.597( 45)  11  316.413( 70)   0
  21  21  H    19   1.095689( 20)  17  109.076( 46)  12   64.088( 71)   0
  22  22  H    19   1.103236( 21)  17  115.116( 47)  12  302.184( 72)   0
  23  23  H    19   1.095816( 22)  17  109.129( 48)  12  180.934( 73)   0
  24  24  O    11   1.225024( 23)  10  120.679( 49)   2  179.952( 74)   0
  25  25  C     7   1.514761( 24)   5  121.071( 50)   3  178.325( 75)   0
  26  26  H    25   1.095262( 25)   7  111.549( 51)   5   29.289( 76)   0
  27  27  H    25   1.097086( 26)   7  111.077( 52)   5  269.467( 77)   0
  28  28  H    25   1.094891( 27)   7  111.483( 53)   5  149.728( 78)   0
 ------------------------------------------------------------------------
                         Z-Matrix orientation:                         
 ---------------------------------------------------------------------
 Center     Atomic     Atomic              Coordinates (Angstroms)
 Number     Number      Type              X           Y           Z
 ---------------------------------------------------------------------
    1          1             0        0.000000    0.000000    0.000000
    2          6             0        0.000000    0.000000    1.085098
    3          6             0        1.223086    0.000000    1.754583
    4          1             0        2.149315    0.000999    1.186294
    5          6             0        1.260728    0.000624    3.149723
    6          1             0        2.221167    0.002756    3.660082
    7          6             0        0.077515    0.000604    3.902529
    8          6             0       -1.139892    0.000105    3.216677
    9          1             0       -2.073885    0.000995    3.768873
   10          6             0       -1.198525   -0.000886    1.813805
   11          6             0       -2.552195    0.000697    1.163770
   12          6             0       -2.691452   -0.056161   -0.371427
   13          6             0       -2.581014   -1.518811   -0.833170
   14          1             0       -1.623011   -1.975879   -0.554634
   15          1             0       -2.691126   -1.567659   -1.920045
   16          1             0       -3.379569   -2.119092   -0.383339
   17          7             0       -3.960611    0.520720   -0.840694
   18          1             0       -1.890819    0.528432   -0.832764
   19          6             0       -3.996729    1.985092   -0.772162
   20          1             0       -4.675115    0.163724   -0.206638
   21          1             0       -3.242756    2.394184   -1.453853
   22          1             0       -3.824010    2.411349    0.230636
   23          1             0       -4.974277    2.336880   -1.120671
   24          8             0       -3.571708   -0.001044    1.842942
   25          6             0        0.114095   -0.036645    5.416390
   26          1             0        1.019600    0.438470    5.808723
   27          1             0        0.098335   -1.069430    5.786127
   28          1             0       -0.747858    0.479900    5.851138
 ---------------------------------------------------------------------
                    Distance matrix (angstroms):
                    1          2          3          4          5
     1  H    0.000000
     2  C    1.085098   0.000000
     3  C    2.138808   1.394328   0.000000
     4  H    2.454964   2.151696   1.086670   0.000000
     5  C    3.392667   2.419114   1.395648   2.155142   0.000000
     6  H    4.281330   3.400607   2.151069   2.474832   1.087618
     7  C    3.903299   2.818497   2.434339   3.416180   1.402395
     8  C    3.412677   2.417226   2.778738   3.865402   2.401553
     9  H    4.301791   3.391703   3.863598   4.950266   3.391606
    10  C    2.174017   1.402667   2.422335   3.406142   2.798679
    11  C    2.805006   2.553408   3.821232   4.701564   4.299115
    12  C    2.717540   3.060806   4.454961   5.085546   5.293529
    13  C    3.108471   3.556427   4.845042   5.363214   5.738563
    14  H    2.616463   3.037595   4.163754   4.601012   5.093601
    15  H    3.658727   4.327886   5.592987   5.961535   6.616586
    16  H    4.007367   4.250688   5.499609   6.125936   6.205488
    17  N    4.082200   4.434667   5.820424   6.458327   6.592140
    18  H    2.132588   2.744564   4.082892   4.547248   5.105980
    19  C    4.528870   4.833616   6.129560   6.748780   6.852748
    20  H    4.682543   4.853049   6.217875   6.967035   6.820996
    21  H    4.285005   4.763807   5.997493   6.463136   6.870474
    22  H    4.526682   4.600843   5.797430   6.511810   6.339339
    23  H    5.608952   5.921980   7.220484   7.843722   7.910097
    24  O    4.019146   3.651222   4.795608   5.758584   5.006008
    25  C    5.417716   4.332950   3.826231   4.694385   2.540460
    26  H    5.913806   4.852265   4.082856   4.778544   2.705575
    27  H    5.884948   4.822139   4.319965   5.148863   3.073564
    28  H    5.918227   4.848168   4.571290   5.512143   3.400260
                    6          7          8          9         10
     6  H    0.000000
     7  C    2.157320   0.000000
     8  C    3.390181   1.397309   0.000000
     9  H    4.296430   2.155548   1.085019   0.000000
    10  C    3.886263   2.447661   1.404097   2.142090   0.000000
    11  C    5.386702   3.796864   2.491793   2.648650   1.501657
    12  C    6.355341   5.092848   3.909603   4.186495   2.647098
    13  C    6.750216   5.639437   4.559079   4.872966   3.349904
    14  H    6.037924   5.163775   4.284939   4.775357   3.112923
    15  H    7.598331   6.635299   5.590181   5.933418   4.315585
    16  H    7.226322   5.900272   4.739965   4.841534   3.751160
    17  N    7.664180   6.251012   4.968879   5.007790   3.866208
    18  H    6.113136   5.155186   4.152228   4.635383   2.786356
    19  C    7.889022   6.510790   5.292686   5.315540   4.296659
    20  H    7.907979   6.284851   4.923785   4.753690   4.024421
    21  H    7.856571   6.741235   5.653981   5.862635   4.537932
    22  H    7.355717   5.875064   4.683485   4.625134   3.901086
    23  H    8.948639   7.497420   6.243045   6.146240   5.322838
    24  O    6.071195   4.190313   2.793005   2.439813   2.373362
    25  C    2.743342   1.514761   2.532305   2.739158   3.834432
    26  H    2.500054   2.170904   3.402098   3.731222   4.590477
    27  H    3.189994   2.166414   3.046175   3.151771   4.313116
    28  H    3.720685   2.169802   2.706340   2.514662   4.090759
                   11         12         13         14         15
    11  C    0.000000
    12  C    1.542548   0.000000
    13  C    2.509483   1.537774   0.000000
    14  H    2.779055   2.204642   1.097390   0.000000
    15  H    3.462507   2.163988   1.093530   1.780972   0.000000
    16  H    2.751654   2.174703   1.095616   1.770692   1.771863
    17  N    2.504383   1.470976   2.462322   3.432086   2.671688
    18  H    2.168426   1.093432   2.160457   2.533900   2.493244
    19  C    3.126073   2.455820   3.779591   4.622894   3.955284
    20  H    2.532071   2.002605   2.758392   3.743574   3.141602
    21  H    3.613530   2.734918   4.016799   4.746538   4.027136
    22  H    2.880884   2.780966   4.257097   4.970796   4.662763
    23  H    4.067296   3.391062   4.547166   5.491018   4.593169
    24  O    1.225024   2.383551   3.232130   3.666846   4.170105
    25  C    5.019490   6.431975   6.965446   6.513931   8.002284
    26  H    5.875794   7.225705   7.804493   7.301012   8.804993
    27  H    5.434765   6.835576   7.155135   6.632490   8.210628
    28  H    5.045462   6.541042   7.213548   6.915971   8.268015
                   16         17         18         19         20
    16  H    0.000000
    17  N    2.741421   0.000000
    18  H    3.070463   2.069822   0.000000
    19  C    4.168500   1.466419   2.561325   0.000000
    20  H    2.630763   1.019798   2.877038   2.024204   0.000000
    21  H    4.640515   2.097891   2.386318   1.095689   2.929530
    22  H    4.593407   2.177358   2.900590   1.103236   2.442827
    23  H    4.789827   2.098653   3.586236   1.095816   2.376459
    24  O    3.078859   2.761410   3.203925   3.311215   2.333546
    25  C    7.083723   7.487656   6.587179   7.699641   7.388852
    26  H    8.014702   8.308069   7.251757   8.418055   8.287933
    27  H    7.159603   7.932111   7.093632   8.313291   7.760137
    28  H    7.249094   7.423211   6.781096   7.529201   7.226338
                   21         22         23         24         25
    21  H    0.000000
    22  H    1.782036   0.000000
    23  H    1.764216   1.776144   0.000000
    24  O    4.088298   2.912530   4.026921   0.000000
    25  C    8.023567   6.956536   8.617326   5.133804   0.000000
    26  H    8.645086   7.646428   9.356656   6.082820   1.095262
    27  H    8.693493   7.639640   9.221615   5.491755   1.097086
    28  H    7.953105   6.692028   8.361644   4.926568   1.094891
                   26         27         28
    26  H    0.000000
    27  H    1.767201   0.000000
    28  H    1.768452   1.766549   0.000000
                           Interatomic angles:
       H1-C2-C3=118.6951       C2-C3-H4=119.7736       C2-C3-C5=120.2406
       H4-C3-C5=119.9857       C3-C5-H6=119.5308       C3-C5-C7=120.9206
       H6-C5-C7=119.5485       C5-C7-C8=118.1382       C7-C8-H9=120.0118
      H1-C2-C10=121.2997      C3-C2-C10=120.0051     C2-C10-C11=123.0498
    C10-C11-C12=120.8076    C11-C12-C13=109.1118    C12-C13-H14=112.4972
    C12-C13-H15=109.4933    H14-C13-H15=108.758     C12-C13-H16=110.2124
    H14-C13-H16=107.6905    H15-C13-H16=108.0718    C11-C12-N17=112.3915
    C13-C12-N17=109.8275    C11-C12-H18=109.5176    C13-C12-H18=109.2232
    N17-C12-H18=106.7076    C12-N17-C19=113.4513    C12-N17-H20=105.5971
    C19-N17-H20=107.6537    N17-C19-H21=109.0758    N17-C19-H22=115.1161
    H21-C19-H22=108.272     N17-C19-H23=109.1286    H21-C19-H23=107.2253
    H22-C19-H23=107.7405    C10-C11-O24=120.6789    C12-C11-O24=118.4629
      C5-C7-C25=121.0715      C8-C7-C25=120.7689     C7-C25-H26=111.5488
     C7-C25-H27=111.0768    H26-C25-H27=107.4288     C7-C25-H28=111.4827
    H26-C25-H28=107.6962    H27-C25-H28=107.3975
 Stoichiometry    C11H15NO
 Framework group  C1[X(C11H15NO)]
 Deg. of freedom    78
 Full point group                 C1      NOp   1
 Largest Abelian subgroup         C1      NOp   1
 Largest concise Abelian subgroup C1      NOp   1
                         Standard orientation:                         
 ---------------------------------------------------------------------
 Center     Atomic     Atomic              Coordinates (Angstroms)
 Number     Number      Type              X           Y           Z
 ---------------------------------------------------------------------
    1          1             0        0.082892    2.115240   -0.486904
    2          6             0       -0.720485    1.398129   -0.353579
    3          6             0       -2.033117    1.815267   -0.570700
    4          1             0       -2.230973    2.841521   -0.868204
    5          6             0       -3.091136    0.919549   -0.409094
    6          1             0       -4.110360    1.256700   -0.583528
    7          6             0       -2.858164   -0.409513   -0.026957
    8          6             0       -1.537245   -0.811711    0.187244
    9          1             0       -1.322145   -1.833285    0.482854
   10          6             0       -0.459508    0.074461    0.030178
   11          6             0        0.926068   -0.447722    0.280131
   12          6             0        2.151415    0.483948    0.180272
   13          6             0        2.309208    1.251825    1.503228
   14          1             0        1.428617    1.861375    1.742548
   15          1             0        3.183766    1.905585    1.443617
   16          1             0        2.464294    0.551374    2.331293
   17          7             0        3.390090   -0.249780   -0.121551
   18          1             0        2.002277    1.197594   -0.634627
   19          6             0        3.473908   -0.706017   -1.512668
   20          1             0        3.370986   -1.076965    0.474593
   21          1             0        3.505845    0.166672   -2.174431
   22          1             0        2.648240   -1.359582   -1.841691
   23          1             0        4.411419   -1.255339   -1.654548
   24          8             0        1.104083   -1.612620    0.614806
   25          6             0       -4.006229   -1.374465    0.185922
   26          1             0       -4.865706   -1.122456   -0.444465
   27          1             0       -4.347330   -1.357961    1.228503
   28          1             0       -3.713406   -2.403560   -0.046471
 ---------------------------------------------------------------------
 Rotational constants (GHZ):      1.6087841      0.4223517      0.3831038
 Standard basis: 6-31G(d) (6D, 7F)
 There are   225 symmetry adapted basis functions of A   symmetry.
 Integral buffers will be    262144 words long.
[...]
 74,-0.00087781,0.00077847,-0.12358998,-0.06566220,0.16403768,-0.000025
 75,0.00001844,0.00001220,-0.00002569,-0.00004351,0.00001909,-0.0000234
 7,-0.00001242,0.00000361,0.00000510,0.00000157,-0.00000023,-0.00000812
 ,0.00000448,0.00001772,0.00000487,0.00000293,0.00000482,0.00000497,-0.
 00004162,0.00000486,0.00007782,0.00003789,-0.00004095,-0.00000119,0.00
 000942,0.00000434,-0.00004699,0.00034370,0.00020412,0.00103245,-0.0005
 7629,-0.00113782,0.00102030,-0.00033536,0.00252189,-0.00010628,0.00012
 385,0.00007560,0.00000268,-0.00001597,-0.00002683,-0.00008650,0.000019
 85,-0.00008758,-0.00000723,-0.00006734,-0.00000850,0.00338634,0.000338
 29,0.00102010,-0.00000479,-0.00001611,0.00019475,-0.06227798,-0.012271
 67,-0.03532368,-0.00031986,-0.00059210,-0.00091163,0.00468081,0.007983
 81,0.02206049,0.05731393,-0.00005080,-0.00003945,0.00004243,0.00005776
 ,0.00004252,-0.00011438,-0.00005252,0.00001577,-0.00002355,-0.00000716
 ,-0.00000527,-0.00000128,-0.00002814,0.00000102,0.00001983,-0.00000249
 ,0.,0.00000674,-0.00001819,-0.00001107,0.00010124,0.00018748,0.0000378
 7,0.00002891,-0.00000450,-0.00002277,0.00004430,-0.00015989,-0.0001596
 6,0.00067514,0.00313541,-0.00101216,-0.00095312,-0.00503193,0.00333978
 ,-0.00212958,0.00065991,-0.00040994,0.00042212,0.00023594,-0.00034708,
 0.00017038,-0.00017456,0.00039447,0.00027431,-0.00004665,0.00017073,-0
 .00008468,-0.00383027,-0.02953878,-0.03252521,0.00052885,-0.00014686,0
 .00008748,-0.01244486,-0.07711979,-0.07166921,0.00088888,0.00115786,-0
 .00067413,0.00289939,0.00551143,0.01044385,0.01456693,0.09276772,-0.00
 003390,-0.00003649,0.00001122,0.00000966,0.00003996,-0.00006813,0.0000
 0611,0.00001150,0.00003485,0.00000038,-0.00000903,-0.00000190,0.000011
 46,0.00000727,0.00000821,0.00000265,-0.00000315,0.00000377,0.00000269,
 -0.00000415,0.00004411,0.00014840,0.00007893,0.00004353,-0.00000418,-0
 .00002389,0.00000009,-0.00002363,-0.00005810,0.00040033,0.00109865,-0.
 00071221,-0.00063184,-0.00128243,0.00047418,0.00138612,0.00014116,-0.0
 0011364,0.00010971,0.00006587,-0.00014117,-0.00002399,-0.00003709,0.00
 015724,0.00005464,-0.00003802,0.00004554,0.00001257,0.00071731,-0.0081
 1923,0.00471277,0.00024605,0.00012941,-0.00025570,-0.03603949,-0.07173
 762,-0.25721852,0.00023465,-0.00029762,0.00102179,-0.00417711,-0.00568
 913,-0.01903905,0.04038200,0.08674877,0.27788945,0.00003935,-0.0000260
 5,-0.00002685,0.00001837,0.00002013,-0.00000346,0.00001700,0.00000798,
 -0.00004617,-0.00001219,-0.00000054,0.00000319,-0.00000891,-0.00000165
 ,-0.00001399,-0.00001242,-0.00000047,-0.00001078,-0.00000751,0.0000018
 0,0.00003586,-0.00005854,0.00000204,0.00004120,0.00001627,-0.00000048,
 0.00001324,-0.00006396,-0.00002991,-0.00011268,0.00019979,0.00003838,0
 .00054478,0.00150618,0.00001597,0.00032141,0.00004509,-0.00010469,-0.0
 0035543,-0.00002344,0.00008301,0.00000347,0.00000017,-0.00001131,0.000
 01608,-0.00000940,0.00012332,0.00002789,0.00117807,0.00109670,0.001286
 11,0.00056708,0.00004267,-0.00014301,-0.27124263,0.06747272,-0.0746045
 5,0.00040057,0.00047420,-0.00010301,-0.01858247,0.00562985,-0.00747924
 ,-0.00380576,0.00022952,-0.00128852,0.28979637,-0.00004381,-0.00003371
 ,0.00001688,-0.00000512,0.00001845,-0.00001112,-0.00001120,0.00000683,
 0.00003083,0.00001254,-0.00000499,-0.00000101,0.00001021,0.00000225,0.
 00001811,0.00000776,-0.00000029,0.00000728,0.00000852,-0.00001377,0.00
 000924,0.00011907,0.00001944,-0.00001367,-0.00001549,-0.00000249,-0.00
 000727,-0.00000942,0.00010188,0.00033921,0.00052085,-0.00049505,-0.001
 20618,-0.00213765,-0.00644693,0.00065194,0.00176021,-0.00028431,0.0008
 4453,0.00003434,-0.00066663,-0.00023654,-0.00001891,0.00007726,-0.0000
 5813,-0.00007360,0.00001533,0.00007532,0.03678688,-0.01675498,0.008831
 62,0.00002834,0.00018646,-0.00033684,0.05946219,-0.06759638,0.02085869
 ,0.00007699,0.00122638,0.00071107,-0.01098349,0.00421894,-0.00530267,-
 0.01015855,0.00420653,-0.00203979,-0.07506649,0.08201827,-0.00000321,0
 .00000393,0.00000463,0.00003723,0.00001135,-0.00005417,-0.00000219,-0.
 00000398,-0.00000913,-0.00000692,-0.00000152,-0.00000029,-0.00000551,0
 .00000200,-0.00000446,-0.00000471,0.00000100,-0.00000117,-0.00000313,-
 0.00000418,0.00003138,-0.00000295,0.00002460,0.00002859,0.00000053,-0.
 00000639,0.00001339,-0.00000324,-0.00000581,0.00004735,0.00065854,-0.0
 0059869,-0.00005651,0.00071768,-0.00013679,0.00081481,-0.00010938,-0.0
 0021314,0.00014826,0.00001567,0.00000132,0.00001266,0.00000364,0.00006
 456,0.00000429,0.00000776,-0.00001748,-0.00000972,0.00284436,0.0005749
 1,0.00084374,-0.00028193,-0.00013460,-0.00002267,-0.07599509,0.0226496
 4,-0.07677515,-0.00036931,0.00035661,-0.00006227,0.01966019,-0.0072246
 8,0.00765070,-0.02911768,0.00799597,-0.00883454,0.08220298,-0.02369766
 ,0.07604497,0.00012363,0.00015773,0.00067029,0.00172412,-0.00004168,-0
 .01066737,-0.00383053,-0.00018499,-0.00167662,-0.00114439,0.00000533,-
 0.00039690,-0.00089041,-0.00002140,0.00118810,-0.00017777,0.00003371,-
 0.00015873,-0.00086218,-0.00005637,0.00163980,-0.00079242,0.00022176,0
 .00818429,-0.00140991,0.00003544,-0.00174801,-0.07538399,0.00182785,0.
 01713678,-0.51019959,0.01366399,0.28639712,-0.00840315,0.00432875,0.02
 259769,-0.00010875,-0.00381058,0.00060660,0.00019439,-0.00029991,-0.00
 019055,0.00031019,0.00137960,-0.00023723,0.00070506,0.00159034,0.00023
 082,0.00212597,0.00008977,-0.00643342,0.00108272,0.00021284,0.00022907
 ,0.00110933,-0.00004788,0.00040846,0.00413347,0.00076749,0.00147086,0.
 00002660,0.00049426,-0.00069509,-0.00080271,-0.00155537,-0.00015714,0.
 00005691,-0.00032020,-0.00023901,0.59260830,-0.00006601,0.00050543,0.0
 0001747,-0.00008993,0.00328302,-0.00004288,0.00013395,-0.00155833,0.00
 002523,0.00001377,-0.00038220,0.00001068,0.00000243,-0.00003204,-0.000
 09656,0.00000285,0.00023502,0.00000454,-0.00013153,-0.00049763,0.00003
 039,0.00003328,0.00001711,-0.00003763,-0.00006032,-0.00045509,-0.00002
 899,0.00143447,0.01753254,-0.00017406,0.01393308,-0.06528035,-0.009418
 14,0.00588726,0.02046922,-0.00345472,-0.00060720,-0.00078290,0.0038221
 8,0.00001064,0.00003159,-0.00014059,0.00034373,0.00132880,0.00005440,0
 .00029935,0.00082293,0.00053853,-0.00250674,0.00069738,-0.00030206,-0.
 00113737,-0.00017116,-0.00287864,-0.00006686,-0.00219746,-0.00187414,0
 .00020848,-0.00163568,0.00051062,0.00010714,0.00029036,0.00067832,0.00
 068197,0.00116886,0.00130065,0.00000434,0.00020185,0.00036098,-0.01844
 872,0.02626012,-0.00065033,-0.00011592,0.00046617,-0.00385548,0.000024
 35,-0.00119024,-0.00086007,0.00007882,0.00102991,-0.00017002,-0.000011
 34,-0.00006598,-0.00144868,-0.00000107,0.00035822,-0.00026674,-0.00002
 066,0.00020065,0.00140010,0.00006937,0.00281013,-0.00274564,0.00006724
 ,-0.00876851,-0.00249732,-0.00004666,0.00265572,0.00701819,-0.00035357
 ,0.02451873,0.27321488,-0.00956271,-0.29583391,0.04426697,-0.00073130,
 -0.03875003,-0.00033618,0.00498421,-0.00346366,0.00050689,-0.00053537,
 -0.00000981,-0.00007949,-0.00243248,0.00002139,-0.00077138,-0.00072910
 ,0.00036202,0.00481831,-0.00062384,-0.00008160,-0.00086290,-0.00076985
 ,-0.00922571,-0.00008462,-0.00259334,-0.00113903,0.00101702,0.00057156
 ,-0.00097851,0.00008736,0.00006747,0.00031651,0.00011301,0.00109528,0.
 00032236,-0.00028596,0.00049668,0.00018992,-0.31765992,0.01107086,0.32
 584111,0.00018552,0.00000263,0.00002360,-0.00094937,0.00000549,-0.0011
 1744,-0.00533112,0.00020253,0.00291784,0.00009405,-0.00000547,0.001627
 92,0.00495690,0.00030439,0.02991798,0.00130952,-0.00013891,0.00028058,
 -0.09047153,0.00002999,0.00196989,0.00160236,-0.00030533,-0.02992530,0
 .00073205,0.00013827,-0.00137217,-0.00383812,-0.00018515,-0.00063802,0
 .00079885,-0.00005219,-0.00157284,-0.00029102,0.00000946,0.00017218,0.
 00001678,0.00002284,-0.00003183,-0.00000435,0.00002455,0.00001257,-0.0
 0000840,-0.00002104,-0.00002005,-0.00001623,-0.00001019,0.00000040,-0.
 00015596,0.00004408,-0.00024156,0.00002028,-0.00000472,0.00003328,-0.0
 0000569,-0.00009390,0.00000626,0.00002317,0.00002113,0.00003122,0.0000
 0561,0.00000631,0.00000532,0.00001660,0.00002030,0.00001298,-0.0000153
 2,0.00001598,-0.00000590,-0.00023847,0.00000320,0.00031515,0.59014542,
 -0.00000285,-0.00099874,0.00000488,-0.00003913,-0.00062087,-0.00013137
 ,-0.00006618,0.00524712,0.00019233,0.00000420,0.00015836,0.00003170,0.
 00006859,0.00310712,-0.00003271,0.00010540,-0.00236983,-0.00003830,-0.
 00005799,-0.07277904,0.00001609,-0.00001064,0.00556069,0.00001994,-0.0
 0009651,-0.00459653,-0.00003567,0.00006825,0.00837852,0.00017477,0.000
 09687,0.00022560,0.00001007,-0.00001989,-0.00024943,-0.00001979,-0.000
 01139,-0.00002196,-0.00006511,0.00000026,0.00001256,0.00000582,-0.0000
 1315,-0.00001406,-0.00001562,0.00000165,-0.00000235,0.00000243,0.00000
 337,-0.00002660,0.00003463,0.00000487,0.00000355,0.00005133,0.00000105
 ,0.00001588,0.00000304,-0.00000286,-0.00000027,-0.00000797,-0.00000028
 ,-0.00000083,0.00000312,-0.00000102,0.00000050,-0.00000686,-0.00000174
 ,-0.00000020,-0.00000184,-0.00001998,0.00019244,0.00001452,-0.00012404
 ,0.54510019,-0.00001831,-0.00003274,0.00002263,-0.00180174,0.00002365,
 -0.00097108,0.00230316,0.00008895,0.00405300,-0.00015579,-0.00002606,-
 0.00003907,0.00485274,-0.00010305,-0.02434042,-0.00152012,-0.00008892,
 0.00107689,-0.00494586,-0.00075231,-0.21244193,-0.00463680,-0.00010306
 ,-0.02030198,0.00192414,-0.00007384,0.00152137,-0.00010074,0.00006594,
 0.00110782,-0.00014532,-0.00005492,-0.00053906,-0.00005675,0.00003415,
 0.00006044,-0.00000616,-0.00001979,0.00000854,0.00000605,-0.00001237,-
 0.00000458,0.00000450,0.00000704,0.00000725,0.00000414,-0.00000031,-0.
 00000443,0.00001165,-0.00001525,0.00001760,0.00000973,0.00000831,-0.00
 000461,0.00000033,0.00002153,-0.00000552,-0.00001448,-0.00000688,-0.00
 002237,-0.00000278,-0.00000075,-0.00000143,-0.00000460,0.00000547,-0.0
 0000120,0.00000898,-0.00000394,0.00000497,0.00028181,0.00001164,0.0001
 3990,-0.01020717,-0.00183930,0.49118352,0.00002092,-0.00015687,-0.0000
 4213,0.00087319,0.00006182,0.00028510,-0.00039734,0.00023056,-0.001297
 02,-0.00000579,-0.00000875,-0.00003982,-0.00015340,0.00003973,0.001975
 12,-0.00014105,-0.00029573,0.00001422,-0.00024236,0.00080012,-0.001915
 20,-0.00011797,0.00011884,-0.00135510,0.00026316,-0.00045267,0.0000122
 0,-0.00039906,0.00045284,0.00031725,0.00005001,-0.00009324,0.00004880,
 -0.00001350,-0.00000025,0.00001739,-0.00000014,0.00000907,-0.00000143,
 -0.00000179,-0.00000132,0.00000098,0.00000248,-0.00000246,-0.00000415,
 0.00000430,0.00000219,0.00000398,-0.00001983,0.00002636,-0.00002897,0.
 00000485,0.00000211,-0.00001076,-0.00000233,-0.00003619,-0.00000837,0.
 00000730,0.00000188,0.00001168,0.00000251,0.00000222,-0.00000132,0.000
 00246,0.00000434,0.00000991,-0.00000329,0.00000439,0.00000034,-0.00007
 555,0.00005957,-0.00006618,-0.09685681,-0.09474637,-0.03543783,0.10049
 354,0.00002390,-0.00003355,-0.00000788,0.00026056,-0.00000903,0.000106
 49,0.00004985,0.00016282,-0.00047856,0.00000311,0.00000309,-0.00004135
 ,-0.00070608,0.00097329,0.00036748,0.00029190,-0.00032365,-0.00021184,
 0.00171534,0.00357333,0.00003984,0.00048772,-0.00025394,0.00019886,0.0
 0009247,0.00008679,0.00004111,-0.00000905,-0.00023047,0.00015387,0.000
 06612,0.00000463,0.00005997,0.00001443,-0.00001289,0.00001985,0.000002
 29,0.00000546,-0.00000676,-0.00000540,0.00000673,0.00000499,-0.0000019
 8,-0.00000259,-0.00000684,0.00000152,0.00000040,0.00000327,-0.00002075
 ,0.00001528,-0.00003255,0.00000253,-0.00000026,-0.00000190,-0.00000064
 ,-0.00001965,0.00000865,0.00000738,0.00000347,0.00001329,0.00000345,0.
 00000145,-0.00000138,0.00000221,0.00000055,0.00000119,-0.00000561,0.00
 000331,-0.00000191,-0.00004895,0.00000938,-0.00004178,-0.09490925,-0.2
 3046556,-0.07310467,0.10467117,0.24906451,0.00004761,-0.00013676,-0.00
 001160,-0.00012239,-0.00016846,-0.00028856,-0.00030009,0.00104722,-0.0
 0015061,0.00004993,-0.00003408,-0.00002136,-0.00132960,0.00071684,0.00
 112802,0.00070404,-0.00055797,0.00011341,-0.01551606,-0.02754549,-0.01
 454048,0.00166968,-0.00035546,-0.00276048,-0.00007977,-0.00063517,0.00
 001066,-0.00053194,0.00163543,-0.00051040,0.00054880,0.00005686,-0.000
 20718,-0.00002378,-0.00009285,0.00005461,0.00000608,0.00001116,-0.0000
 4570,-0.00000949,0.00003886,0.00001347,-0.00001299,-0.00001930,-0.0000
 2223,-0.00001317,-0.00000454,0.00000446,-0.00008393,0.00003716,-0.0001
 0530,0.00000418,-0.00001528,0.00003170,-0.00000443,-0.00007315,0.00000
 724,0.00001704,0.00001656,0.00003220,0.00000822,0.00000315,-0.00000111
 ,0.00000754,0.00000758,0.00001123,-0.00001455,0.00001241,-0.00000382,-
 0.00029772,0.00005231,0.00003451,-0.03663780,-0.07509829,-0.07585055,0
 .04163664,0.08030587,0.08476996,0.00002808,0.00017139,-0.00004624,0.00
 074924,-0.00007683,0.00030687,-0.00028806,-0.00037140,-0.00121343,-0.0
 0000254,0.00002065,-0.00004935,-0.00008258,-0.00019092,0.00197279,-0.0
 0007120,0.00040574,-0.00000024,-0.00029316,-0.00119587,-0.00188682,-0.
 00001573,0.00005784,-0.00119157,0.00035096,0.00039285,0.00005071,-0.00
 034934,-0.00036540,0.00018428,0.00007119,0.00007718,0.00006557,-0.0000
 2260,-0.00000493,0.00001685,-0.00000293,0.00002489,-0.00001401,0.00000
 945,-0.00000271,-0.00000048,0.00000156,-0.00001067,-0.00000312,-0.0000
 0576,0.00000020,0.00000247,-0.00001802,-0.00001170,-0.00004805,0.00000
 044,-0.00000106,-0.00000372,0.00000355,0.00000128,0.00001566,0.0000098
 0,0.00000870,0.00001985,0.00000171,0.00000015,-0.00000232,-0.00000044,
 -0.00000558,-0.00000501,-0.00000353,0.00000084,-0.00000237,-0.00007961
 ,-0.00004850,-0.00008401,-0.12162369,0.10779997,-0.04506660,0.00863637
 ,-0.01211012,0.00586618,0.12767596,-0.00002550,-0.00001865,0.00000013,
 -0.00032225,-0.00000755,-0.00003836,-0.00005157,0.00012814,0.00042802,
 -0.00000247,-0.00000032,0.00003651,0.00065546,0.00098626,-0.00034064,-
 0.00034882,-0.00029168,0.00024883,-0.00227292,0.00329060,-0.00088502,-
 0.00037812,-0.00023508,-0.00016252,-0.00004386,0.00013278,-0.00005004,
 -0.00000217,-0.00025763,-0.00036988,-0.00003719,0.00000162,-0.00006365
 ,-0.00000972,0.00000639,-0.00001258,-0.00000159,-0.00000599,0.00000610
 ,0.00000046,-0.00000542,-0.00000406,0.00000186,0.00000352,0.00000626,0
 .00000171,0.00000069,-0.00000229,0.00001659,0.00000471,0.00003015,0.00
 000012,0.00000292,-0.00000341,-0.00000216,0.00000120,-0.00001498,-0.00
 000680,-0.00000566,-0.00001355,-0.00000247,-0.00000052,0.00000033,-0.0
 0000138,0.00000318,0.00000540,0.00000513,-0.00000140,0.00000266,0.0000
 3171,0.00000322,0.00004383,0.10796208,-0.20552868,0.07029105,0.0158701
 4,-0.02225135,0.00922574,-0.11917119,0.22149729,0.00005867,0.00012774,
 -0.00000778,-0.00010144,0.00016633,-0.00025828,-0.00028024,-0.00090845
 ,-0.00010743,0.00004564,0.00003190,-0.00000671,-0.00138876,-0.00074156
 ,0.00137842,0.00078312,0.00053753,0.00009206,-0.01887252,0.02541989,-0
 .01431019,0.00169162,0.00046923,-0.00345373,-0.00003971,0.00057604,0.0
 0001487,-0.00070602,-0.00155194,-0.00044592,0.00049920,-0.00008313,-0.
 00025623,-0.00003191,0.00005627,0.00006606,0.00000336,0.00002423,-0.00
 001289,-0.00000117,0.00003236,0.00000830,-0.00000518,-0.00001487,-0.00
 001382,-0.00001858,-0.00000514,0.00000198,-0.00008684,0.00002146,-0.00
 013295,0.00000036,-0.00001819,0.00001152,0.00000042,-0.00005852,0.0000
 1257,0.00001952,0.00001959,0.00003849,0.00000651,0.00000305,0.00000160
 ,0.00001005,0.00000279,0.00000504,-0.00001441,0.00000945,-0.00000511,-
 0.00027249,-0.00003362,0.00003002,-0.04595015,0.07134750,-0.07762889,0
 .00676603,-0.00819153,0.00396699,0.05217482,-0.07623395,0.08655854,0.0
 0003965,-0.00001990,0.00002673,0.00018323,0.00001247,0.00001679,0.0000
 3129,-0.00002512,-0.00041253,0.00000988,0.00000178,0.00001504,0.000478
 02,-0.00008670,-0.00010897,0.00030398,0.00000966,-0.00020250,0.0022636
 0,0.00030090,-0.00137013,0.00056379,0.00005018,-0.00207739,0.00049771,
 -0.00004080,0.00022906,0.00039105,0.00007443,0.00032651,-0.00032445,-0
 .00000696,-0.00000805,-0.00001302,0.00001128,-0.00001983,-0.00000398,-
 0.00001117,0.00001391,0.00000395,-0.00001651,-0.00000326,0.00000431,0.
 00000853,0.00000756,0.00000884,0.00000335,-0.00000183,0.00003983,-0.00
 001496,0.00004963,0.00000394,0.00001016,-0.00000759,-0.00000079,0.0000
 2887,-0.00000296,-0.00001029,-0.00000824,-0.00001763,-0.00000227,-0.00
 000117,-0.00000272,-0.00000558,-0.00000179,-0.00000342,0.00000816,-0.0
 0000517,0.00000362,0.00019871,0.00000367,-0.00003293,-0.28010102,-0.01
 294048,0.09471379,-0.01193085,0.00012189,0.00441178,-0.01467913,-0.001
 86509,0.00571011,0.30204143,0.00000036,0.00000620,-0.00000302,0.000081
 46,-0.00001336,0.00002237,-0.00001984,0.00046262,-0.00014130,0.0000008
 9,-0.00015959,-0.00000947,-0.00001262,0.00125401,-0.00001902,-0.000032
 83,-0.00025268,0.00000129,0.00052521,-0.00119512,-0.00044676,-0.000069
 90,-0.00011516,-0.00002990,0.00004444,0.00026077,0.00006143,0.00001022
 ,-0.00016724,0.00003062,-0.00003152,-0.00003437,0.00001111,-0.00000869
 ,0.00002865,0.00000070,0.00000290,0.00000436,0.00000318,0.00000553,-0.
 00000155,-0.00000247,-0.00000010,-0.00000168,0.00000268,-0.00000572,-0
 .00000094,-0.00000217,0.00000711,-0.00002100,-0.00000428,-0.00000012,-
 0.00000023,-0.00000427,0.00000250,0.00002238,0.00001236,0.00000100,0.0
 0000431,0.00000267,-0.00000053,-0.00000128,-0.00000210,-0.00000199,-0.
 00000596,-0.00000796,0.00000120,-0.00000207,-0.00000086,0.00001546,-0.
 00005642,-0.00001521,-0.01296304,-0.05032757,0.00568043,-0.02656350,-0
 .00031154,0.01156968,0.02460522,0.00254742,-0.01100447,0.01440688,0.04
 807706,-0.00009701,0.00000988,0.00001290,-0.00025654,0.00001455,0.0000
 9938,0.00184276,-0.00011120,0.00007166,-0.00001417,-0.00000947,-0.0005
 5068,-0.00200960,0.00006620,-0.00686892,0.00001933,0.00003502,0.000062
 14,0.03237251,0.00173096,-0.01293282,0.00227139,-0.00008709,0.00205789
 ,-0.00131957,0.00004466,-0.00012539,-0.00020141,-0.00003862,-0.0001756
 5,0.00040804,0.00001362,-0.00000537,0.00004308,-0.00000423,-0.00000320
 ,0.00000551,-0.00000837,-0.00000055,-0.00000558,0.00001919,-0.00000002
 ,-0.00000585,0.00000002,-0.00000067,-0.00000981,-0.00000418,-0.0000025
 2,-0.00000844,0.00000545,0.00001844,-0.00000850,-0.00001448,0.00001982
 ,-0.00000104,-0.00000923,-0.00000916,-0.00000401,0.00000143,-0.0000043
 9,-0.00000049,-0.00000093,0.00000487,0.00000327,0.00000254,0.00000307,
 -0.00000258,0.00000154,-0.00000065,-0.00021148,-0.00000676,0.00020973,
 0.09039307,0.00538064,-0.08704683,-0.01089137,0.00080422,0.00434092,-0
 .01105871,-0.00213007,0.00445349,-0.10125278,-0.00570529,0.09637251||0
 .00007884,0.00004507,0.00002114,-0.00000578,-0.00016417,0.00000812,-0.
 00000833,0.00009834,-0.00002793,0.00000860,0.00000791,0.00000947,-0.00
 003040,0.00000022,0.00003466,0.00000502,-0.00000134,-0.00000438,0.0000
 9931,0.00000797,-0.00001033,-0.00004138,-0.00000559,-0.00003745,0.0000
 1721,-0.00000326,-0.00000709,0.00002419,0.00000294,0.00001631,-0.00005
 298,0.00009435,-0.00003005,0.00005031,0.00000190,0.00001277,-0.0000168
 7,-0.00001488,0.00001190,-0.00001102,-0.00000455,-0.00000123,-0.000004
 25,0.00000061,0.00000634,-0.00000020,-0.00002867,-0.00000199,0.0000179
 9,-0.00001777,0.00005276,0.00002504,0.00001400,0.00004967,-0.00000838,
 0.00001379,0.00004072,-0.00005291,0.00001704,0.00001438,-0.00000604,-0
 .00001884,-0.00000472,0.00000784,-0.00000680,-0.00000884,-0.00000715,-
 0.00000162,0.00000219,-0.00007768,-0.00003659,-0.00014807,-0.00000634,
 -0.00000163,0.00000893,-0.00000407,0.00000185,0.00000406,0.00000002,0.
 00000043,-0.00000638,-0.00000059,-0.00000072,-0.00000493|||@


 MEMORIES ARE LIKE AN ENGLISH GRAMMER LESSON -
 PRESENT TENSE, AND PAST PERFECT.
 Job cpu time:  0 days  1 hours  4 minutes 21.0 seconds.
 File lengths (MBytes):  RWF=    161 Int=      0 D2E=      0 Chk=     10 Scr=      1
 Normal termination of Gaussian 03 at Thu Sep 16 14:43:44 2021.
