 Entering Link 1 = C:\G03W\l1.exe PID=     20104.
  
 Copyright (c) 1988,1990,1992,1993,1995,1998,2003,2004, Gaussian, Inc.
                  All Rights Reserved.
  
 This is the Gaussian(R) 03 program.  It is based on the
 the Gaussian(R) 98 system (copyright 1998, Gaussian, Inc.),
 the Gaussian(R) 94 system (copyright 1995, Gaussian, Inc.),
 the Gaussian 92(TM) system (copyright 1992, Gaussian, Inc.),
 the Gaussian 90(TM) system (copyright 1990, Gaussian, Inc.),
 the Gaussian 88(TM) system (copyright 1988, Gaussian, Inc.),
 the Gaussian 86(TM) system (copyright 1986, Carnegie Mellon
 University), and the Gaussian 82(TM) system (copyright 1983,
 Carnegie Mellon University). Gaussian is a federally registered
 trademark of Gaussian, Inc.
  
 This software contains proprietary and confidential information,
 including trade secrets, belonging to Gaussian, Inc.
  
 This software is provided under written license and may be
 used, copied, transmitted, or stored only in accord with that
 written license.
  
 The following legend is applicable only to US Government
 contracts under FAR:
  
                    RESTRICTED RIGHTS LEGEND
  
 Use, reproduction and disclosure by the US Government is
 subject to restrictions as set forth in subparagraphs (a)
 and (c) of the Commercial Computer Software - Restricted
 Rights clause in FAR 52.227-19.
  
 Gaussian, Inc.
 340 Quinnipiac St., Bldg. 40, Wallingford CT 06492
  
  
 ---------------------------------------------------------------
 Warning -- This program may not be used in any manner that
 competes with the business of Gaussian, Inc. or will provide
 assistance to any competitor of Gaussian, Inc.  The licensee
 of this program is prohibited from giving any competitor of
 Gaussian, Inc. access to this program.  By using this program,
 the user acknowledges that Gaussian, Inc. is engaged in the
 business of creating and licensing software in the field of
 computational chemistry and represents and warrants to the
 licensee that it is not a competitor of Gaussian, Inc. and that
 it will not use this program in any manner prohibited above.
 ---------------------------------------------------------------
  

 Cite this work as:
 Gaussian 03, Revision C.01,
 M. J. Frisch, G. W. Trucks, H. B. Schlegel, G. E. Scuseria, 
 M. A. Robb, J. R. Cheeseman, J. A. Montgomery, Jr., T. Vreven, 
 K. N. Kudin, J. C. Burant, J. M. Millam, S. S. Iyengar, J. Tomasi, 
 V. Barone, B. Mennucci, M. Cossi, G. Scalmani, N. Rega, 
 G. A. Petersson, H. Nakatsuji, M. Hada, M. Ehara, K. Toyota, 
 R. Fukuda, J. Hasegawa, M. Ishida, T. Nakajima, Y. Honda, O. Kitao, 
 H. Nakai, M. Klene, X. Li, J. E. Knox, H. P. Hratchian, J. B. Cross, 
 C. Adamo, J. Jaramillo, R. Gomperts, R. E. Stratmann, O. Yazyev, 
 A. J. Austin, R. Cammi, C. Pomelli, J. W. Ochterski, P. Y. Ayala, 
 K. Morokuma, G. A. Voth, P. Salvador, J. J. Dannenberg, 
 V. G. Zakrzewski, S. Dapprich, A. D. Daniels, M. C. Strain, 
 O. Farkas, D. K. Malick, A. D. Rabuck, K. Raghavachari, 
 J. B. Foresman, J. V. Ortiz, Q. Cui, A. G. Baboul, S. Clifford, 
 J. Cioslowski, B. B. Stefanov, G. Liu, A. Liashenko, P. Piskorz, 
 I. Komaromi, R. L. Martin, D. J. Fox, T. Keith, M. A. Al-Laham, 
 C. Y. Peng, A. Nanayakkara, M. Challacombe, P. M. W. Gill, 
 B. Johnson, W. Chen, M. W. Wong, C. Gonzalez, and J. A. Pople, 
 Gaussian, Inc., Wallingford CT, 2004.
 
 ******************************************
 Gaussian 03:  IA32W-G03RevC.01  3-Apr-2004
                17-Sep-2021 
 ******************************************
 Default route:  MaxDisk=2000MB
 ------------------------
 # B3LYP/6-31G(d) POP=NBO
 ------------------------
 1/38=1/1;
 2/17=6,18=5,40=1/2;
 3/5=1,6=6,7=1,11=2,16=1,25=1,30=1,74=-5/1,2,3;
 4//1;
 5/5=2,32=1,38=5/2;
 6/7=2,8=2,9=2,10=2,28=1/1,7;
 99/5=1,9=1/99;
 ----------
 3,4-boxmmc
 ----------
 Symbolic Z-matrix:
 Charge =  0 Multiplicity = 1
 H
 C                    1    B1
 C                    2    B2       1    A2
 H                    3    B3       2    A3       1    D3       0
 C                    3    B4       2    A4       1    D4       0
 C                    5    B5       3    A5       2    D5       0
 C                    6    B6       5    A6       3    D6       0
 H                    7    B7       6    A7       5    D7       0
 C                    7    B8       6    A8       5    D8       0
 C                    9    B9       7    A9       6    D9       0
 C                    10   B10      9    A10      7    D10      0
 C                    11   B11      10   A11      9    D11      0
 H                    12   B12      11   A12      10   D12      0
 H                    12   B13      11   A13      10   D13      0
 H                    12   B14      11   A14      10   D14      0
 N                    11   B15      10   A15      9    D15      0
 H                    11   B16      10   A16      9    D16      0
 C                    16   B17      11   A17      10   D17      0
 H                    16   B18      11   A18      10   D18      0
 H                    18   B19      16   A19      11   D19      0
 H                    18   B20      16   A20      11   D20      0
 H                    18   B21      16   A21      11   D21      0
 O                    10   B22      9    A22      7    D22      0
 C                    5    B23      3    A23      2    D23      0
 C                    6    B24      5    A24      3    D24      0
 H                    24   B25      5    A25      3    D25      0
 H                    24   B26      5    A26      3    D26      0
 H                    25   B27      6    A27      5    D27      0
 H                    25   B28      6    A28      5    D28      0
       Variables:
  B1                    1.085                    
  B2                    1.4025                   
  A2                  118.3093                   
  B3                    1.0868                   
  A3                  120.6245                   
  D3                    0.0336                   
  B4                    1.3868                   
  A4                  116.0709                   
  D4                  179.9614                   
  B5                    1.3981                   
  A5                  122.1801                   
  D5                    0.0613                   
  B6                    1.3811                   
  A6                  122.3908                   
  D6                  359.9446                   
  B7                    1.0853                   
  A7                  124.4885                   
  D7                  180.0933                   
  B8                    1.4142                   
  A8                  116.6128                   
  D8                  360.0163                   
  B9                    1.4977                   
  A9                  117.2413                   
  D9                  180.2516                   
  B10                   1.549                    
  A10                 121.2318                   
  D10                 183.8571                   
  B11                   1.5407                   
  A11                 108.6361                   
  D11                  82.1719                   
  B12                   1.0952                   
  A12                 111.9529                   
  D12                 300.9775                   
  B13                   1.0936                   
  A13                 109.3632                   
  D13                 179.7782                   
  B14                   1.0962                   
  A14                 110.0188                   
  D14                  60.9903                   
  B15                   1.4581                   
  A15                 112.3108                   
  D15                 203.6184                   
  B16                   1.0962                   
  A16                 109.9257                   
  D16                 323.0532                   
  B17                   1.4636                   
  A17                 113.6385                   
  D17                  72.8124                   
  B18                   1.0203                   
  A18                 106.723                    
  D18                 313.7897                   
  B19                   1.0967                   
  A19                 109.32                     
  D19                  65.1546                   
  B20                   1.1032                   
  A20                 114.6704                   
  D20                 303.5242                   
  B21                   1.0949                   
  A21                 108.9122                   
  D21                 182.401                    
  B22                   1.2252                   
  A22                 120.43                     
  D22                 361.5336                   
  B23                   1.5216                   
  A23                 144.3421                   
  D23                 180.0672                   
  B24                   1.5234                   
  A24                  93.43                     
  D24                 179.971                    
  B25                   1.0957                   
  A25                 115.5725                   
  D25                  64.1249                   
  B26                   1.0957                   
  A26                 115.5883                   
  D26                 295.9593                   
  B27                   1.0954                   
  A27                 115.6642                   
  D27                 244.2791                   
  B28                   1.0954                   
  A28                 115.6791                   
  D28                 115.8052                   
 
                          Input orientation:                          
 ---------------------------------------------------------------------
 Center     Atomic     Atomic              Coordinates (Angstroms)
 Number     Number      Type              X           Y           Z
 ---------------------------------------------------------------------
    1          1             0        0.000000    0.000000    0.000000
    2          6             0        0.000000    0.000000    1.085000
    3          6             0        1.234762    0.000000    1.750109
    4          1             0        2.165684    0.000548    1.189290
    5          6             0        1.180597    0.000839    3.135851
    6          6             0       -0.030904    0.000374    3.833669
    7          6             0       -1.254085    0.000178    3.192370
    8          1             0       -2.213731    0.001275    3.699276
    9          6             0       -1.228055    0.000112    1.778409
   10          6             0       -2.546783    0.005747    1.068460
   11          6             0       -2.627919   -0.082958   -0.475868
   12          6             0       -2.507527   -1.561761   -0.891083
   13          1             0       -1.567527   -2.007807   -0.549168
   14          1             0       -2.567383   -1.638560   -1.980339
   15          1             0       -3.332407   -2.140914   -0.460026
   16          7             0       -3.870830    0.472844   -0.997706
   17          1             0       -1.803144    0.481385   -0.926332
   18          6             0       -3.932672    1.933756   -0.934176
   19          1             0       -4.624719    0.098692   -0.420928
   20          1             0       -3.168234    2.358402   -1.596038
   21          1             0       -3.788173    2.357344    0.074161
   22          1             0       -4.909184    2.263997   -1.303191
   23          8             0       -3.593646    0.038455    1.704168
   24          6             0        2.018640    0.002365    4.405869
   25          6             0        0.649113    0.000980    5.196873
   26          1             0        2.638390    0.892273    4.562500
   27          1             0        2.641098   -0.885531    4.563176
   28          1             0        0.477891   -0.888494    5.812843
   29          1             0        0.475999    0.889782    5.813284
 ---------------------------------------------------------------------
                    Distance matrix (angstroms):
                    1          2          3          4          5
     1  H    0.000000
     2  C    1.085000   0.000000
     3  C    2.141849   1.402500   0.000000
     4  H    2.470748   2.168193   1.086800   0.000000
     5  C    3.350727   2.366389   1.386800   2.181627   0.000000
     6  C    3.833793   2.748843   2.437854   3.437693   1.398100
     7  C    3.429862   2.452292   2.876538   3.963224   2.435338
     8  H    4.311061   3.425646   3.961232   5.047703   3.440772
     9  C    2.161217   1.410296   2.462979   3.444491   2.764823
    10  C    2.761837   2.546844   3.842494   4.714019   4.262334
    11  C    2.671946   3.057638   4.458942   5.075269   5.249412
    12  C    3.085582   3.554109   4.839392   5.348613   5.679804
    13  H    2.605766   3.026373   4.143765   4.581767   5.016593
    14  H    3.632916   4.321185   5.572919   5.927491   6.550602
    15  H    3.987489   4.251535   5.507017   6.126590   6.155050
    16  N    4.025211   4.420924   5.817313   6.437818   6.544157
    17  H    2.083543   2.743814   4.077246   4.523124   5.063098
    18  C    4.480849   4.825183   6.135729   6.740648   6.815189
    19  H    4.644884   4.864729   6.249533   6.979398   6.808961
    20  H    4.259941   4.773649   6.012081   6.462832   6.845524
    21  H    4.462379   4.574836   5.796184   6.499724   6.294103
    22  H    5.560942   5.910095   7.224707   7.835139   7.868443
    23  O    3.977431   3.646798   4.828779   5.782422   4.984428
    24  C    4.846297   3.886269   2.769031   3.219939   1.521600
    25  C    5.237254   4.162793   3.496164   4.284940   2.128447
    26  H    5.345433   4.455363   3.267394   3.520962   2.226015
    27  H    5.346226   4.456150   3.267306   3.520548   2.226201
    28  H    5.899742   4.834284   4.227066   5.001629   2.907060
    29  H    5.900217   4.834766   4.228099   5.002708   2.907804
                    6          7          8          9         10
     6  C    0.000000
     7  C    1.381100   0.000000
     8  H    2.186961   1.085300   0.000000
     9  C    2.378500   1.414200   2.159002   0.000000
    10  C    3.738457   2.486381   2.651817   1.497700   0.000000
    11  C    5.032250   3.917946   4.196484   2.654861   1.549000
    12  C    5.558526   4.548115   4.858065   3.347041   2.509667
    13  H    5.059967   4.257858   4.743761   3.092668   2.762257
    14  H    6.551529   5.582753   5.922175   4.313611   3.464007
    15  H    5.824161   4.716322   4.810427   3.744714   2.749841
    16  N    6.189543   4.962610   5.002998   3.861936   2.498064
    17  H    5.101942   4.182909   4.668547   2.806773   2.181382
    18  C    6.457097   5.286013   5.306422   4.290927   3.106197
    19  H    6.262140   4.942348   4.774771   4.047732   2.558268
    20  H    6.699615   5.670452   5.874306   4.551123   3.608426
    21  H    5.814317   4.658440   4.601237   3.874947   2.838959
    22  H    7.436997   6.220506   6.116375   5.307744   4.037989
    23  O    4.150826   2.773041   2.426108   2.367066   1.225200
    24  C    2.127921   3.490461   4.290949   4.176671   5.655210
    25  C    1.523400   2.764090   3.230894   3.899955   5.220878
    26  H    2.907199   4.221901   5.008204   4.847319   6.315082
    27  H    2.908024   4.223274   5.010201   4.848673   6.318348
    28  H    2.228473   3.264408   3.536055   4.469511   5.697148
    29  H    2.228648   3.264013   3.534561   4.469399   5.694918
                   11         12         13         14         15
    11  C    0.000000
    12  C    1.540700   0.000000
    13  H    2.198829   1.095200   0.000000
    14  H    2.164948   1.093600   1.784463   0.000000
    15  H    2.175256   1.096200   1.772135   1.774535   0.000000
    16  N    1.458100   2.451444   3.414677   2.668814   2.722265
    17  H    1.096200   2.161445   2.528605   2.487803   3.071244
    18  C    2.445314   3.775120   4.612815   3.964835   4.145850
    19  H    2.005798   2.731419   3.714863   3.111662   2.586007
    20  H    2.739882   4.037470   4.766757   4.060100   4.643417
    21  H    2.757497   4.234517   4.937039   4.656023   4.552736
    22  H    3.375918   4.535880   5.475721   4.601360   4.753987
    23  O    2.387452   3.236614   3.656483   4.176265   3.082472
    24  C    6.740116   7.140755   6.438461   8.031682   7.543493
    25  C    6.551792   7.033473   6.478094   8.034072   7.241596
    26  H    7.353247   7.889506   7.226988   8.735785   8.371165
    27  H    7.334755   7.530907   6.716255   8.397197   7.905144
    28  H    7.059946   7.369439   6.775824   8.400595   7.445523
    29  H    7.080534   7.736926   7.283737   8.740438   7.939993
                   16         17         18         19         20
    16  N    0.000000
    17  H    2.068935   0.000000
    18  C    1.463600   2.577660   0.000000
    19  H    1.020300   2.891915   2.027267   0.000000
    20  H    2.099279   2.415609   1.096700   2.934028   0.000000
    21  H    2.169579   2.908702   1.103200   2.458949   1.781541
    22  H    2.092780   3.601001   1.094900   2.355388   1.767931
    23  O    2.750572   3.212727   3.266185   2.362790   4.056413
    24  C    8.006612   6.577831   8.225842   8.212276   8.275111
    25  C    7.682795   6.613470   7.894184   7.706007   8.140836
    26  H    8.570983   7.072717   8.630005   8.844042   8.590343
    27  H    8.670282   7.194056   9.021292   8.865782   9.066826
    28  H    8.194400   7.245424   8.540517   8.116100   8.872884
    29  H    8.090633   7.126269   8.127391   8.093735   8.386616
                   21         22         23         24         25
    21  H    0.000000
    22  H    1.778335   0.000000
    23  O    2.841128   3.965840   0.000000
    24  C    7.617658   9.257596   6.228824   0.000000
    25  C    7.175245   8.846849   5.495579   1.581548   0.000000
    26  H    7.974480   9.656802   6.909221   1.095700   2.270254
    27  H    8.485459  10.066804   6.920961   1.095700   2.270568
    28  H    7.852850   9.465554   5.858145   2.268726   1.095400
    29  H    7.298934   9.029556   5.845648   2.268935   1.095400
                   26         27         28         29
    26  H    0.000000
    27  H    1.777806   0.000000
    28  H    3.066308   2.498228   0.000000
    29  H    2.498079   3.066294   1.778278   0.000000
 Stoichiometry    C12H15NO
 Framework group  C1[X(C12H15NO)]
 Deg. of freedom    81
 Full point group                 C1      NOp   1
 Largest Abelian subgroup         C1      NOp   1
 Largest concise Abelian subgroup C1      NOp   1
                         Standard orientation:                         
 ---------------------------------------------------------------------
 Center     Atomic     Atomic              Coordinates (Angstroms)
 Number     Number      Type              X           Y           Z
 ---------------------------------------------------------------------
    1          1             0       -0.254534    1.963453    0.535586
    2          6             0        0.519326    1.226460    0.347952
    3          6             0        1.856229    1.600081    0.548218
    4          1             0        2.106481    2.603147    0.883429
    5          6             0        2.806704    0.622347    0.295543
    6          6             0        2.458166   -0.661360   -0.134925
    7          6             0        1.146347   -1.043353   -0.336538
    8          1             0        0.837482   -2.029499   -0.668195
    9          6             0        0.156047   -0.065492   -0.085431
   10          6             0       -1.271816   -0.466492   -0.294023
   11          6             0       -2.424832    0.555135   -0.132053
   12          6             0       -2.551345    1.365610   -1.436231
   13          1             0       -1.625057    1.896840   -1.679644
   14          1             0       -3.365611    2.088746   -1.336201
   15          1             0       -2.786607    0.696843   -2.272328
   16          7             0       -3.697388   -0.089614    0.169534
   17          1             0       -2.202628    1.241501    0.693284
   18          6             0       -3.779776   -0.616647    1.532463
   19          1             0       -3.790985   -0.872007   -0.478626
   20          1             0       -3.742415    0.215296    2.246063
   21          1             0       -2.984158   -1.333286    1.797924
   22          1             0       -4.744198   -1.118796    1.661078
   23          8             0       -1.551567   -1.608003   -0.640154
   24          6             0        4.297840    0.319424    0.291351
   25          6             0        3.905432   -1.132937   -0.196457
   26          1             0        4.790998    0.357743    1.269046
   27          1             0        4.896201    0.897628   -0.421532
   28          1             0        4.276608   -1.396355   -1.192821
   29          1             0        4.172743   -1.936596    0.498222
 ---------------------------------------------------------------------
 Rotational constants (GHZ):      1.7098846      0.3428090      0.3206555
 Standard basis: 6-31G(d) (6D, 7F)
 There are   240 symmetry adapted basis functions of A   symmetry.
 Integral buffers will be    262144 words long.
 Raffenetti 2 integral format.
 Two-electron integral symmetry is turned on.
   240 basis functions,   452 primitive gaussians,   240 cartesian basis functions
    51 alpha electrons       51 beta electrons
       nuclear repulsion energy       851.8210135885 Hartrees.
 NAtoms=   29 NActive=   29 NUniq=   29 SFac= 1.00D+00 NAtFMM=   60 Big=F
 One-electron integrals computed using PRISM.
 NBasis=   240 RedAO= T  NBF=   240
 NBsUse=   240 1.00D-06 NBFU=   240
 Harris functional with IExCor=  402 diagonalized for initial guess.
 ExpMin= 1.61D-01 ExpMax= 5.48D+03 ExpMxC= 8.25D+02 IAcc=1 IRadAn=         1 AccDes= 1.00D-06
 HarFok:  IExCor= 402 AccDes= 1.00D-06 IRadAn=         1 IDoV=1
 ScaDFX=  1.000000  1.000000  1.000000  1.000000
 Initial guess orbital symmetries:
       Occupied  (A) (A) (A) (A) (A) (A) (A) (A) (A) (A) (A) (A)
                 (A) (A) (A) (A) (A) (A) (A) (A) (A) (A) (A) (A)
                 (A) (A) (A) (A) (A) (A) (A) (A) (A) (A) (A) (A)
                 (A) (A) (A) (A) (A) (A) (A) (A) (A) (A) (A) (A)
                 (A) (A) (A)
       Virtual   (A) (A) (A) (A) (A) (A) (A) (A) (A) (A) (A) (A)
                 (A) (A) (A) (A) (A) (A) (A) (A) (A) (A) (A) (A)
                 (A) (A) (A) (A) (A) (A) (A) (A) (A) (A) (A) (A)
                 (A) (A) (A) (A) (A) (A) (A) (A) (A) (A) (A) (A)
                 (A) (A) (A) (A) (A) (A) (A) (A) (A) (A) (A) (A)
                 (A) (A) (A) (A) (A) (A) (A) (A) (A) (A) (A) (A)
                 (A) (A) (A) (A) (A) (A) (A) (A) (A) (A) (A) (A)
                 (A) (A) (A) (A) (A) (A) (A) (A) (A) (A) (A) (A)
                 (A) (A) (A) (A) (A) (A) (A) (A) (A) (A) (A) (A)
                 (A) (A) (A) (A) (A) (A) (A) (A) (A) (A) (A) (A)
                 (A) (A) (A) (A) (A) (A) (A) (A) (A) (A) (A) (A)
                 (A) (A) (A) (A) (A) (A) (A) (A) (A) (A) (A) (A)
                 (A) (A) (A) (A) (A) (A) (A) (A) (A) (A) (A) (A)
                 (A) (A) (A) (A) (A) (A) (A) (A) (A) (A) (A) (A)
                 (A) (A) (A) (A) (A) (A) (A) (A) (A) (A) (A) (A)
                 (A) (A) (A) (A) (A) (A) (A) (A) (A)
 The electronic state of the initial guess is 1-A.
 Warning!  Cutoffs for single-point calculations used.
 Requested convergence on RMS density matrix=1.00D-04 within 128 cycles.
 Requested convergence on MAX density matrix=1.00D-02.
 Requested convergence on             energy=5.00D-05.
 No special actions if energy rises.
 SCF Done:  E(RB+HF-LYP) =  -596.243146620     A.U. after    8 cycles
             Convg  =    0.4212D-05             -V/T =  2.0096
             S**2   =   0.0000

 **********************************************************************

            Population analysis using the SCF density.

 **********************************************************************

 Orbital symmetries:
       Occupied  (A) (A) (A) (A) (A) (A) (A) (A) (A) (A) (A) (A)
                 (A) (A) (A) (A) (A) (A) (A) (A) (A) (A) (A) (A)
                 (A) (A) (A) (A) (A) (A) (A) (A) (A) (A) (A) (A)
                 (A) (A) (A) (A) (A) (A) (A) (A) (A) (A) (A) (A)
                 (A) (A) (A)
       Virtual   (A) (A) (A) (A) (A) (A) (A) (A) (A) (A) (A) (A)
                 (A) (A) (A) (A) (A) (A) (A) (A) (A) (A) (A) (A)
                 (A) (A) (A) (A) (A) (A) (A) (A) (A) (A) (A) (A)
                 (A) (A) (A) (A) (A) (A) (A) (A) (A) (A) (A) (A)
                 (A) (A) (A) (A) (A) (A) (A) (A) (A) (A) (A) (A)
                 (A) (A) (A) (A) (A) (A) (A) (A) (A) (A) (A) (A)
                 (A) (A) (A) (A) (A) (A) (A) (A) (A) (A) (A) (A)
                 (A) (A) (A) (A) (A) (A) (A) (A) (A) (A) (A) (A)
                 (A) (A) (A) (A) (A) (A) (A) (A) (A) (A) (A) (A)
                 (A) (A) (A) (A) (A) (A) (A) (A) (A) (A) (A) (A)
                 (A) (A) (A) (A) (A) (A) (A) (A) (A) (A) (A) (A)
                 (A) (A) (A) (A) (A) (A) (A) (A) (A) (A) (A) (A)
                 (A) (A) (A) (A) (A) (A) (A) (A) (A) (A) (A) (A)
                 (A) (A) (A) (A) (A) (A) (A) (A) (A) (A) (A) (A)
                 (A) (A) (A) (A) (A) (A) (A) (A) (A) (A) (A) (A)
                 (A) (A) (A) (A) (A) (A) (A) (A) (A)
 The electronic state is 1-A.
 Alpha  occ. eigenvalues --  -19.13472 -14.30892 -10.26771 -10.21589 -10.20485
 Alpha  occ. eigenvalues --  -10.20307 -10.20196 -10.20120 -10.20065 -10.19955
 Alpha  occ. eigenvalues --  -10.19677 -10.19446 -10.19316 -10.17820  -1.03402
 Alpha  occ. eigenvalues --   -0.89495  -0.88596  -0.82047  -0.75965  -0.75379
 Alpha  occ. eigenvalues --   -0.70446  -0.65511  -0.65391  -0.63051  -0.60014
 Alpha  occ. eigenvalues --   -0.58487  -0.53454  -0.51901  -0.47676  -0.47167
 Alpha  occ. eigenvalues --   -0.46573  -0.44843  -0.44406  -0.43711  -0.42545
 Alpha  occ. eigenvalues --   -0.41688  -0.40560  -0.39143  -0.37714  -0.37573
 Alpha  occ. eigenvalues --   -0.37078  -0.35421  -0.35359  -0.34790  -0.33960
 Alpha  occ. eigenvalues --   -0.33606  -0.32066  -0.25626  -0.25237  -0.24811
 Alpha  occ. eigenvalues --   -0.21439
 Alpha virt. eigenvalues --   -0.05381  -0.01098   0.04384   0.08981   0.10488
 Alpha virt. eigenvalues --    0.11342   0.12700   0.12920   0.13675   0.14243
 Alpha virt. eigenvalues --    0.15272   0.15556   0.16340   0.16715   0.17153
 Alpha virt. eigenvalues --    0.17658   0.17880   0.18370   0.18623   0.21470
 Alpha virt. eigenvalues --    0.23069   0.23472   0.24236   0.25049   0.26065
 Alpha virt. eigenvalues --    0.27321   0.28589   0.31870   0.34787   0.37373
 Alpha virt. eigenvalues --    0.38696   0.40578   0.47219   0.48950   0.50707
 Alpha virt. eigenvalues --    0.51030   0.52635   0.52883   0.53493   0.55368
 Alpha virt. eigenvalues --    0.55652   0.56818   0.57002   0.57294   0.58612
 Alpha virt. eigenvalues --    0.59337   0.60402   0.60894   0.62209   0.63481
 Alpha virt. eigenvalues --    0.65135   0.65807   0.67453   0.68622   0.70065
 Alpha virt. eigenvalues --    0.70572   0.73124   0.76804   0.77353   0.78621
 Alpha virt. eigenvalues --    0.78972   0.79774   0.80619   0.81360   0.82923
 Alpha virt. eigenvalues --    0.84182   0.84391   0.84887   0.86200   0.86276
 Alpha virt. eigenvalues --    0.86811   0.88846   0.89444   0.90796   0.91209
 Alpha virt. eigenvalues --    0.91969   0.93956   0.95267   0.95721   0.97632
 Alpha virt. eigenvalues --    0.98135   0.98782   0.99389   1.01097   1.02290
 Alpha virt. eigenvalues --    1.03729   1.05210   1.07287   1.10178   1.11548
 Alpha virt. eigenvalues --    1.12148   1.19285   1.21353   1.25012   1.25726
 Alpha virt. eigenvalues --    1.30919   1.31543   1.32450   1.34713   1.36715
 Alpha virt. eigenvalues --    1.40414   1.40890   1.41327   1.45379   1.47688
 Alpha virt. eigenvalues --    1.48668   1.53416   1.56083   1.58760   1.63982
 Alpha virt. eigenvalues --    1.67355   1.68819   1.69453   1.71639   1.73103
 Alpha virt. eigenvalues --    1.75324   1.77856   1.80963   1.83473   1.84470
 Alpha virt. eigenvalues --    1.87469   1.88946   1.90806   1.91817   1.93057
 Alpha virt. eigenvalues --    1.95190   1.96979   1.98502   1.99527   1.99824
 Alpha virt. eigenvalues --    2.01373   2.02242   2.03783   2.05680   2.06924
 Alpha virt. eigenvalues --    2.09039   2.09733   2.14348   2.15492   2.19966
 Alpha virt. eigenvalues --    2.20286   2.21415   2.22838   2.24999   2.26044
 Alpha virt. eigenvalues --    2.27047   2.27724   2.29480   2.30391   2.33104
 Alpha virt. eigenvalues --    2.33873   2.38101   2.40338   2.41337   2.43846
 Alpha virt. eigenvalues --    2.47216   2.48556   2.51938   2.56779   2.60987
 Alpha virt. eigenvalues --    2.62456   2.67652   2.68107   2.71719   2.73462
 Alpha virt. eigenvalues --    2.76578   2.81300   2.84734   2.87900   2.89530
 Alpha virt. eigenvalues --    2.95996   3.01221   3.10386   3.23684   3.42274
 Alpha virt. eigenvalues --    3.94377   4.04735   4.05427   4.09822   4.14474
 Alpha virt. eigenvalues --    4.22810   4.24498   4.27314   4.33610   4.38099
 Alpha virt. eigenvalues --    4.42920   4.53076   4.65322   4.84031
          Condensed to atoms (all electrons):
              1          2          3          4          5          6
     1  H    0.583559   0.350017  -0.041099  -0.004300   0.001805   0.000713
     2  C    0.350017   5.073651   0.463965  -0.042810  -0.014230  -0.039540
     3  C   -0.041099   0.463965   5.126509   0.353487   0.511526  -0.060427
     4  H   -0.004300  -0.042810   0.353487   0.588775  -0.037489   0.005211
     5  C    0.001805  -0.014230   0.511526  -0.037489   4.719973   0.571853
     6  C    0.000713  -0.039540  -0.060427   0.005211   0.571853   4.795461
     7  C    0.005399  -0.072938  -0.065001   0.000556  -0.064342   0.447375
     8  H   -0.000140   0.005266   0.000215   0.000020   0.004723  -0.040605
     9  C   -0.034734   0.496906  -0.013044   0.003066  -0.029675  -0.006903
    10  C   -0.010977  -0.035771   0.004548  -0.000099   0.000714   0.005105
    11  C    0.005737  -0.006131  -0.000029   0.000011  -0.000036   0.000057
    12  C   -0.000457  -0.002549  -0.000021  -0.000002   0.000006   0.000002
    13  H    0.001211   0.002910   0.000014  -0.000002  -0.000007  -0.000012
    14  H    0.000103   0.000037  -0.000001   0.000000   0.000000   0.000000
    15  H   -0.000048  -0.000026   0.000005   0.000000   0.000000  -0.000001
    16  N   -0.000023  -0.000041  -0.000003   0.000000   0.000000   0.000000
    17  H    0.003457   0.001481   0.000342  -0.000005  -0.000003  -0.000009
    18  C   -0.000016   0.000012   0.000000   0.000000   0.000000   0.000000
    19  H   -0.000004  -0.000015   0.000000   0.000000   0.000000  -0.000001
    20  H   -0.000011  -0.000021   0.000000   0.000000   0.000000   0.000000
    21  H   -0.000003   0.000002   0.000002   0.000000   0.000000   0.000000
    22  H    0.000000   0.000000   0.000000   0.000000   0.000000   0.000000
    23  O    0.000029   0.003898  -0.000051   0.000000  -0.000013   0.001658
    24  C   -0.000150   0.007114  -0.096128  -0.003568   0.286060  -0.075846
    25  C    0.000027  -0.000420   0.031504  -0.000441  -0.075409   0.283136
    26  H    0.000001  -0.000098   0.000810   0.000510  -0.012329  -0.003798
    27  H    0.000001  -0.000063   0.000699   0.000499  -0.012546  -0.003856
    28  H    0.000000   0.000046  -0.000635   0.000008  -0.004112  -0.012406
    29  H    0.000000   0.000031  -0.000606   0.000008  -0.003977  -0.012157
              7          8          9         10         11         12
     1  H    0.005399  -0.000140  -0.034734  -0.010977   0.005737  -0.000457
     2  C   -0.072938   0.005266   0.496906  -0.035771  -0.006131  -0.002549
     3  C   -0.065001   0.000215  -0.013044   0.004548  -0.000029  -0.000021
     4  H    0.000556   0.000020   0.003066  -0.000099   0.000011  -0.000002
     5  C   -0.064342   0.004723  -0.029675   0.000714  -0.000036   0.000006
     6  C    0.447375  -0.040605  -0.006903   0.005105   0.000057   0.000002
     7  C    5.276687   0.352411   0.434593  -0.024813   0.009012  -0.000267
     8  H    0.352411   0.554467  -0.044646  -0.009502   0.000638  -0.000018
     9  C    0.434593  -0.044646   5.047696   0.248619  -0.096613   0.003583
    10  C   -0.024813  -0.009502   0.248619   4.741805   0.279431  -0.044788
    11  C    0.009012   0.000638  -0.096613   0.279431   5.105571   0.355100
    12  C   -0.000267  -0.000018   0.003583  -0.044788   0.355100   5.132446
    13  H   -0.000068  -0.000001   0.001336   0.001770  -0.030931   0.357253
    14  H    0.000008   0.000000  -0.000242   0.004517  -0.026830   0.367481
    15  H   -0.000029  -0.000008   0.000238  -0.005581  -0.032167   0.371572
    16  N   -0.000081  -0.000002   0.005527  -0.051480   0.343660  -0.057159
    17  H   -0.000422  -0.000026  -0.000847  -0.040657   0.358410  -0.036981
    18  C   -0.000001  -0.000001   0.000120   0.000602  -0.056879   0.005812
    19  H   -0.000042  -0.000012   0.001089  -0.009371  -0.048109  -0.001752
    20  H   -0.000001   0.000000   0.000058  -0.000994  -0.006022   0.000189
    21  H    0.000027   0.000004  -0.001150   0.008298  -0.006222  -0.000133
    22  H    0.000000   0.000000   0.000009  -0.000146   0.005249  -0.000207
    23  O    0.000846   0.016880  -0.090031   0.544400  -0.092137  -0.003263
    24  C    0.031171  -0.000375  -0.000942   0.000007   0.000000   0.000000
    25  C   -0.093208  -0.003013   0.005125  -0.000129   0.000001   0.000000
    26  H   -0.000641   0.000007   0.000054   0.000000   0.000000   0.000000
    27  H   -0.000632   0.000007   0.000040   0.000000   0.000000   0.000000
    28  H    0.001003   0.000436  -0.000070   0.000001   0.000000   0.000000
    29  H    0.000866   0.000429  -0.000051   0.000003   0.000000   0.000000
             13         14         15         16         17         18
     1  H    0.001211   0.000103  -0.000048  -0.000023   0.003457  -0.000016
     2  C    0.002910   0.000037  -0.000026  -0.000041   0.001481   0.000012
     3  C    0.000014  -0.000001   0.000005  -0.000003   0.000342   0.000000
     4  H   -0.000002   0.000000   0.000000   0.000000  -0.000005   0.000000
     5  C   -0.000007   0.000000   0.000000   0.000000  -0.000003   0.000000
     6  C   -0.000012   0.000000  -0.000001   0.000000  -0.000009   0.000000
     7  C   -0.000068   0.000008  -0.000029  -0.000081  -0.000422  -0.000001
     8  H   -0.000001   0.000000  -0.000008  -0.000002  -0.000026  -0.000001
     9  C    0.001336  -0.000242   0.000238   0.005527  -0.000847   0.000120
    10  C    0.001770   0.004517  -0.005581  -0.051480  -0.040657   0.000602
    11  C   -0.030931  -0.026830  -0.032167   0.343660   0.358410  -0.056879
    12  C    0.357253   0.367481   0.371572  -0.057159  -0.036981   0.005812
    13  H    0.574716  -0.025281  -0.029247   0.004319  -0.003697  -0.000178
    14  H   -0.025281   0.543877  -0.027655   0.003625  -0.005113  -0.000038
    15  H   -0.029247  -0.027655   0.558370  -0.004160   0.005689  -0.000057
    16  N    0.004319   0.003625  -0.004160   6.844857  -0.048083   0.320981
    17  H   -0.003697  -0.005113   0.005689  -0.048083   0.620158  -0.004613
    18  C   -0.000178  -0.000038  -0.000057   0.320981  -0.004613   4.960662
    19  H   -0.000227  -0.000729   0.004794   0.299118   0.008092  -0.038103
    20  H   -0.000011  -0.000049   0.000007  -0.042660   0.007622   0.380151
    21  H    0.000021   0.000027  -0.000005  -0.046213  -0.001342   0.358035
    22  H    0.000002  -0.000015   0.000007  -0.034114   0.000048   0.382685
    23  O    0.000019  -0.000036   0.002682  -0.012809   0.002978  -0.001102
    24  C    0.000000   0.000000   0.000000   0.000000   0.000000   0.000000
    25  C    0.000000   0.000000   0.000000   0.000000   0.000000   0.000000
    26  H    0.000000   0.000000   0.000000   0.000000   0.000000   0.000000
    27  H    0.000000   0.000000   0.000000   0.000000   0.000000   0.000000
    28  H    0.000000   0.000000   0.000000   0.000000   0.000000   0.000000
    29  H    0.000000   0.000000   0.000000   0.000000   0.000000   0.000000
             19         20         21         22         23         24
     1  H   -0.000004  -0.000011  -0.000003   0.000000   0.000029  -0.000150
     2  C   -0.000015  -0.000021   0.000002   0.000000   0.003898   0.007114
     3  C    0.000000   0.000000   0.000002   0.000000  -0.000051  -0.096128
     4  H    0.000000   0.000000   0.000000   0.000000   0.000000  -0.003568
     5  C    0.000000   0.000000   0.000000   0.000000  -0.000013   0.286060
     6  C   -0.000001   0.000000   0.000000   0.000000   0.001658  -0.075846
     7  C   -0.000042  -0.000001   0.000027   0.000000   0.000846   0.031171
     8  H   -0.000012   0.000000   0.000004   0.000000   0.016880  -0.000375
     9  C    0.001089   0.000058  -0.001150   0.000009  -0.090031  -0.000942
    10  C   -0.009371  -0.000994   0.008298  -0.000146   0.544400   0.000007
    11  C   -0.048109  -0.006022  -0.006222   0.005249  -0.092137   0.000000
    12  C   -0.001752   0.000189  -0.000133  -0.000207  -0.003263   0.000000
    13  H   -0.000227  -0.000011   0.000021   0.000002   0.000019   0.000000
    14  H   -0.000729  -0.000049   0.000027  -0.000015  -0.000036   0.000000
    15  H    0.004794   0.000007  -0.000005   0.000007   0.002682   0.000000
    16  N    0.299118  -0.042660  -0.046213  -0.034114  -0.012809   0.000000
    17  H    0.008092   0.007622  -0.001342   0.000048   0.002978   0.000000
    18  C   -0.038103   0.380151   0.358035   0.382685  -0.001102   0.000000
    19  H    0.458340   0.005958  -0.003795  -0.003234   0.021790   0.000000
    20  H    0.005958   0.583726  -0.045301  -0.026695   0.000083   0.000000
    21  H   -0.003795  -0.045301   0.636920  -0.038078   0.004186   0.000000
    22  H   -0.003234  -0.026695  -0.038078   0.564484  -0.000023   0.000000
    23  O    0.021790   0.000083   0.004186  -0.000023   8.082462   0.000000
    24  C    0.000000   0.000000   0.000000   0.000000   0.000000   5.333526
    25  C    0.000000   0.000000   0.000000   0.000000   0.000002   0.228097
    26  H    0.000000   0.000000   0.000000   0.000000   0.000000   0.344366
    27  H    0.000000   0.000000   0.000000   0.000000   0.000000   0.344565
    28  H    0.000000   0.000000   0.000000   0.000000   0.000000  -0.018914
    29  H    0.000000   0.000000   0.000000   0.000000   0.000000  -0.019018
             25         26         27         28         29
     1  H    0.000027   0.000001   0.000001   0.000000   0.000000
     2  C   -0.000420  -0.000098  -0.000063   0.000046   0.000031
     3  C    0.031504   0.000810   0.000699  -0.000635  -0.000606
     4  H   -0.000441   0.000510   0.000499   0.000008   0.000008
     5  C   -0.075409  -0.012329  -0.012546  -0.004112  -0.003977
     6  C    0.283136  -0.003798  -0.003856  -0.012406  -0.012157
     7  C   -0.093208  -0.000641  -0.000632   0.001003   0.000866
     8  H   -0.003013   0.000007   0.000007   0.000436   0.000429
     9  C    0.005125   0.000054   0.000040  -0.000070  -0.000051
    10  C   -0.000129   0.000000   0.000000   0.000001   0.000003
    11  C    0.000001   0.000000   0.000000   0.000000   0.000000
    12  C    0.000000   0.000000   0.000000   0.000000   0.000000
    13  H    0.000000   0.000000   0.000000   0.000000   0.000000
    14  H    0.000000   0.000000   0.000000   0.000000   0.000000
    15  H    0.000000   0.000000   0.000000   0.000000   0.000000
    16  N    0.000000   0.000000   0.000000   0.000000   0.000000
    17  H    0.000000   0.000000   0.000000   0.000000   0.000000
    18  C    0.000000   0.000000   0.000000   0.000000   0.000000
    19  H    0.000000   0.000000   0.000000   0.000000   0.000000
    20  H    0.000000   0.000000   0.000000   0.000000   0.000000
    21  H    0.000000   0.000000   0.000000   0.000000   0.000000
    22  H    0.000000   0.000000   0.000000   0.000000   0.000000
    23  O    0.000002   0.000000   0.000000   0.000000   0.000000
    24  C    0.228097   0.344366   0.344565  -0.018914  -0.019018
    25  C    5.329097  -0.018920  -0.018834   0.345145   0.344981
    26  H   -0.018920   0.565206  -0.034711   0.001981  -0.002679
    27  H   -0.018834  -0.034711   0.565389  -0.002676   0.001978
    28  H    0.345145   0.001981  -0.002676   0.565310  -0.034964
    29  H    0.344981  -0.002679   0.001978  -0.034964   0.565225
 Mulliken atomic charges:
              1
     1  H    0.139906
     2  C   -0.190682
     3  C   -0.216579
     4  H    0.136567
     5  C    0.157509
     6  C    0.144991
     7  C   -0.237466
     8  H    0.162847
     9  C    0.070889
    10  C    0.394488
    11  C   -0.060772
    12  C   -0.445846
    13  H    0.146088
    14  H    0.166313
    15  H    0.155620
    16  N   -0.525260
    17  H    0.133522
    18  C   -0.308072
    19  H    0.306211
    20  H    0.143970
    21  H    0.134721
    22  H    0.150027
    23  O   -0.482449
    24  C   -0.359964
    25  C   -0.356738
    26  H    0.160241
    27  H    0.160139
    28  H    0.159848
    29  H    0.159929
 Sum of Mulliken charges=   0.00000
 Atomic charges with hydrogens summed into heavy atoms:
              1
     1  H    0.000000
     2  C   -0.050775
     3  C   -0.080012
     4  H    0.000000
     5  C    0.157509
     6  C    0.144991
     7  C   -0.074619
     8  H    0.000000
     9  C    0.070889
    10  C    0.394488
    11  C    0.072750
    12  C    0.022176
    13  H    0.000000
    14  H    0.000000
    15  H    0.000000
    16  N   -0.219049
    17  H    0.000000
    18  C    0.120646
    19  H    0.000000
    20  H    0.000000
    21  H    0.000000
    22  H    0.000000
    23  O   -0.482449
    24  C   -0.039584
    25  C   -0.036961
    26  H    0.000000
    27  H    0.000000
    28  H    0.000000
    29  H    0.000000
 Sum of Mulliken charges=   0.00000
 Electronic spatial extent (au):  <R**2>=  3587.2850
 Charge=     0.0000 electrons
 Dipole moment (field-independent basis, Debye):
    X=     2.8204    Y=     1.5401    Z=     0.7165  Tot=     3.2924
 Quadrupole moment (field-independent basis, Debye-Ang):
   XX=   -79.8378   YY=   -82.3844   ZZ=   -82.5873
   XY=    -0.7744   XZ=    -0.9573   YZ=    -0.0228
 Traceless Quadrupole moment (field-independent basis, Debye-Ang):
   XX=     1.7653   YY=    -0.7812   ZZ=    -0.9841
   XY=    -0.7744   XZ=    -0.9573   YZ=    -0.0228
 Octapole moment (field-independent basis, Debye-Ang**2):
  XXX=    46.2401  YYY=     4.1434  ZZZ=    -3.2132  XYY=     3.4404
  XXY=   -14.7497  XXZ=     3.4829  XZZ=    -8.7040  YZZ=    -2.3994
  YYZ=     4.4067  XYZ=     4.2606
 Hexadecapole moment (field-independent basis, Debye-Ang**3):
 XXXX= -3825.0715 YYYY=  -619.4735 ZZZZ=  -379.9063 XXXY=    84.8354
 XXXZ=    -5.4019 YYYX=    -1.6447 YYYZ=     9.1380 ZZZX=     1.2749
 ZZZY=     6.4490 XXYY=  -719.8850 XXZZ=  -668.8791 YYZZ=  -168.5999
 XXYZ=    -2.2969 YYXZ=    -0.0968 ZZXY=     0.8686
 N-N= 8.518210135885D+02 E-N=-3.087625776753D+03  KE= 5.905628701200D+02
 ******************************Gaussian NBO Version 3.1******************************
             N A T U R A L   A T O M I C   O R B I T A L   A N D
          N A T U R A L   B O N D   O R B I T A L   A N A L Y S I S
 ******************************Gaussian NBO Version 3.1******************************
       /RESON  / : Allow strongly delocalized NBO set

 Analyzing the SCF density

 Job title: 3,4-boxmmc                                                      

 Storage needed:    175592 in NPA,    231976 in NBO (   6288930 available)


 NATURAL POPULATIONS:  Natural atomic orbital occupancies 
                                                          
   NAO  Atom  No  lang   Type(AO)    Occupancy      Energy
 ----------------------------------------------------------
     1    H    1  S      Val( 1S)     0.76331       0.08633
     2    H    1  S      Ryd( 2S)     0.00085       0.65358

     3    C    2  S      Cor( 1S)     1.99909     -10.05709
     4    C    2  S      Val( 2S)     0.95197      -0.17240
     5    C    2  S      Ryd( 3S)     0.00055       1.25485
     6    C    2  S      Ryd( 4S)     0.00005       3.99482
     7    C    2  px     Val( 2p)     1.12848      -0.05663
     8    C    2  px     Ryd( 3p)     0.00342       1.01510
     9    C    2  py     Val( 2p)     1.11391      -0.05494
    10    C    2  py     Ryd( 3p)     0.00412       0.92082
    11    C    2  pz     Val( 2p)     0.99419      -0.10695
    12    C    2  pz     Ryd( 3p)     0.00093       0.66366
    13    C    2  dxy    Ryd( 3d)     0.00089       2.35483
    14    C    2  dxz    Ryd( 3d)     0.00049       1.91541
    15    C    2  dyz    Ryd( 3d)     0.00040       2.04342
    16    C    2  dx2y2  Ryd( 3d)     0.00056       2.36786
    17    C    2  dz2    Ryd( 3d)     0.00045       2.18571

    18    C    3  S      Cor( 1S)     1.99896     -10.04882
    19    C    3  S      Val( 2S)     0.95367      -0.16315
    20    C    3  S      Ryd( 3S)     0.00091       1.35349
    21    C    3  S      Ryd( 4S)     0.00003       3.84165
    22    C    3  px     Val( 2p)     1.06687      -0.04240
    23    C    3  px     Ryd( 3p)     0.00407       0.69528
    24    C    3  py     Val( 2p)     1.17932      -0.06229
    25    C    3  py     Ryd( 3p)     0.00451       1.04629
    26    C    3  pz     Val( 2p)     1.02203      -0.10387
    27    C    3  pz     Ryd( 3p)     0.00098       0.66876
    28    C    3  dxy    Ryd( 3d)     0.00071       2.34526
    29    C    3  dxz    Ryd( 3d)     0.00047       1.98016
    30    C    3  dyz    Ryd( 3d)     0.00048       1.99249
    31    C    3  dx2y2  Ryd( 3d)     0.00076       2.33667
    32    C    3  dz2    Ryd( 3d)     0.00037       2.22768

    33    H    4  S      Val( 1S)     0.75772       0.08715
    34    H    4  S      Ryd( 2S)     0.00100       0.54884

    35    C    5  S      Cor( 1S)     1.99896     -10.04707
    36    C    5  S      Val( 2S)     0.88515      -0.13878
    37    C    5  S      Ryd( 3S)     0.00165       1.06727
    38    C    5  S      Ryd( 4S)     0.00006       4.23092
    39    C    5  px     Val( 2p)     1.06628      -0.04885
    40    C    5  px     Ryd( 3p)     0.00431       1.20774
    41    C    5  py     Val( 2p)     1.06966      -0.05332
    42    C    5  py     Ryd( 3p)     0.00439       0.88041
    43    C    5  pz     Val( 2p)     0.96910      -0.09421
    44    C    5  pz     Ryd( 3p)     0.00189       0.71615
    45    C    5  dxy    Ryd( 3d)     0.00106       2.42049
    46    C    5  dxz    Ryd( 3d)     0.00056       1.96296
    47    C    5  dyz    Ryd( 3d)     0.00059       2.10752
    48    C    5  dx2y2  Ryd( 3d)     0.00086       2.38993
    49    C    5  dz2    Ryd( 3d)     0.00042       2.24047

    50    C    6  S      Cor( 1S)     1.99896     -10.04189
    51    C    6  S      Val( 2S)     0.88047      -0.13209
    52    C    6  S      Ryd( 3S)     0.00163       1.08600
    53    C    6  S      Ryd( 4S)     0.00006       4.22360
    54    C    6  px     Val( 2p)     1.08115      -0.03780
    55    C    6  px     Ryd( 3p)     0.00379       1.26422
    56    C    6  py     Val( 2p)     1.05694      -0.05683
    57    C    6  py     Ryd( 3p)     0.00505       0.84970
    58    C    6  pz     Val( 2p)     0.99697      -0.09249
    59    C    6  pz     Ryd( 3p)     0.00194       0.71886
    60    C    6  dxy    Ryd( 3d)     0.00088       2.30899
    61    C    6  dxz    Ryd( 3d)     0.00061       2.02095
    62    C    6  dyz    Ryd( 3d)     0.00050       2.04833
    63    C    6  dx2y2  Ryd( 3d)     0.00104       2.51880
    64    C    6  dz2    Ryd( 3d)     0.00040       2.25202

    65    C    7  S      Cor( 1S)     1.99894     -10.04194
    66    C    7  S      Val( 2S)     0.95057      -0.14940
    67    C    7  S      Ryd( 3S)     0.00098       1.30829
    68    C    7  S      Ryd( 4S)     0.00005       3.93433
    69    C    7  px     Val( 2p)     1.06734      -0.02997
    70    C    7  px     Ryd( 3p)     0.00523       0.80033
    71    C    7  py     Val( 2p)     1.17830      -0.05885
    72    C    7  py     Ryd( 3p)     0.00416       1.06029
    73    C    7  pz     Val( 2p)     0.96762      -0.09677
    74    C    7  pz     Ryd( 3p)     0.00082       0.67952
    75    C    7  dxy    Ryd( 3d)     0.00070       2.38276
    76    C    7  dxz    Ryd( 3d)     0.00051       2.00849
    77    C    7  dyz    Ryd( 3d)     0.00046       1.99560
    78    C    7  dx2y2  Ryd( 3d)     0.00076       2.39106
    79    C    7  dz2    Ryd( 3d)     0.00037       2.26126

    80    H    8  S      Val( 1S)     0.73831       0.11005
    81    H    8  S      Ryd( 2S)     0.00199       0.58990

    82    C    9  S      Cor( 1S)     1.99897     -10.05331
    83    C    9  S      Val( 2S)     0.90768      -0.15305
    84    C    9  S      Ryd( 3S)     0.00114       1.05777
    85    C    9  S      Ryd( 4S)     0.00006       4.20442
    86    C    9  px     Val( 2p)     1.08944      -0.06239
    87    C    9  px     Ryd( 3p)     0.00522       1.21812
    88    C    9  py     Val( 2p)     1.09096      -0.05895
    89    C    9  py     Ryd( 3p)     0.00520       1.10339
    90    C    9  pz     Val( 2p)     1.05112      -0.10268
    91    C    9  pz     Ryd( 3p)     0.00101       0.74550
    92    C    9  dxy    Ryd( 3d)     0.00061       2.45598
    93    C    9  dxz    Ryd( 3d)     0.00035       1.96365
    94    C    9  dyz    Ryd( 3d)     0.00053       2.08815
    95    C    9  dx2y2  Ryd( 3d)     0.00080       2.42022
    96    C    9  dz2    Ryd( 3d)     0.00040       2.24608

    97    C   10  S      Cor( 1S)     1.99924     -10.13755
    98    C   10  S      Val( 2S)     0.85778      -0.16614
    99    C   10  S      Ryd( 3S)     0.00629       1.22987
   100    C   10  S      Ryd( 4S)     0.00024       3.93142
   101    C   10  px     Val( 2p)     0.99972      -0.03130
   102    C   10  px     Ryd( 3p)     0.00472       0.95281
   103    C   10  py     Val( 2p)     0.80994      -0.00410
   104    C   10  py     Ryd( 3p)     0.01764       0.93212
   105    C   10  pz     Val( 2p)     0.73649      -0.09814
   106    C   10  pz     Ryd( 3p)     0.00345       0.69896
   107    C   10  dxy    Ryd( 3d)     0.00236       2.52661
   108    C   10  dxz    Ryd( 3d)     0.00068       1.99979
   109    C   10  dyz    Ryd( 3d)     0.00123       2.29516
   110    C   10  dx2y2  Ryd( 3d)     0.00146       2.52233
   111    C   10  dz2    Ryd( 3d)     0.00053       2.30945

   112    C   11  S      Cor( 1S)     1.99918     -10.08370
   113    C   11  S      Val( 2S)     0.96718      -0.21320
   114    C   11  S      Ryd( 3S)     0.00163       1.50048
   115    C   11  S      Ryd( 4S)     0.00004       4.39349
   116    C   11  px     Val( 2p)     0.94637      -0.06570
   117    C   11  px     Ryd( 3p)     0.00460       0.79273
   118    C   11  py     Val( 2p)     1.07188      -0.08126
   119    C   11  py     Ryd( 3p)     0.00283       0.78590
   120    C   11  pz     Val( 2p)     1.13339      -0.08835
   121    C   11  pz     Ryd( 3p)     0.00313       0.86574
   122    C   11  dxy    Ryd( 3d)     0.00136       2.31522
   123    C   11  dxz    Ryd( 3d)     0.00071       1.98724
   124    C   11  dyz    Ryd( 3d)     0.00113       2.26939
   125    C   11  dx2y2  Ryd( 3d)     0.00126       2.17464
   126    C   11  dz2    Ryd( 3d)     0.00096       2.20267

   127    C   12  S      Cor( 1S)     1.99941     -10.04789
   128    C   12  S      Val( 2S)     1.10585      -0.25630
   129    C   12  S      Ryd( 3S)     0.00041       1.29991
   130    C   12  S      Ryd( 4S)     0.00001       4.24872
   131    C   12  px     Val( 2p)     1.24659      -0.07970
   132    C   12  px     Ryd( 3p)     0.00218       0.71493
   133    C   12  py     Val( 2p)     1.19846      -0.08088
   134    C   12  py     Ryd( 3p)     0.00170       0.65962
   135    C   12  pz     Val( 2p)     1.11602      -0.07401
   136    C   12  pz     Ryd( 3p)     0.00106       0.57980
   137    C   12  dxy    Ryd( 3d)     0.00107       2.20636
   138    C   12  dxz    Ryd( 3d)     0.00027       1.92505
   139    C   12  dyz    Ryd( 3d)     0.00090       2.21953
   140    C   12  dx2y2  Ryd( 3d)     0.00032       1.95076
   141    C   12  dz2    Ryd( 3d)     0.00074       2.11487

   142    H   13  S      Val( 1S)     0.76731       0.08580
   143    H   13  S      Ryd( 2S)     0.00097       0.68715

   144    H   14  S      Val( 1S)     0.75172       0.10166
   145    H   14  S      Ryd( 2S)     0.00134       0.65420

   146    H   15  S      Val( 1S)     0.76438       0.08874
   147    H   15  S      Ryd( 2S)     0.00133       0.66501

   148    N   16  S      Cor( 1S)     1.99957     -14.14339
   149    N   16  S      Val( 2S)     1.35451      -0.51984
   150    N   16  S      Ryd( 3S)     0.00079       1.53046
   151    N   16  S      Ryd( 4S)     0.00001       3.84803
   152    N   16  px     Val( 2p)     1.51743      -0.18497
   153    N   16  px     Ryd( 3p)     0.00470       0.86889
   154    N   16  py     Val( 2p)     1.52201      -0.17814
   155    N   16  py     Ryd( 3p)     0.00408       0.99566
   156    N   16  pz     Val( 2p)     1.27932      -0.16422
   157    N   16  pz     Ryd( 3p)     0.00221       1.04387
   158    N   16  dxy    Ryd( 3d)     0.00111       2.18060
   159    N   16  dxz    Ryd( 3d)     0.00055       2.02669
   160    N   16  dyz    Ryd( 3d)     0.00134       2.31259
   161    N   16  dx2y2  Ryd( 3d)     0.00132       2.14780
   162    N   16  dz2    Ryd( 3d)     0.00066       2.28089

   163    H   17  S      Val( 1S)     0.76334       0.08294
   164    H   17  S      Ryd( 2S)     0.00177       0.72071

   165    C   18  S      Cor( 1S)     1.99951     -10.07304
   166    C   18  S      Val( 2S)     1.08781      -0.24257
   167    C   18  S      Ryd( 3S)     0.00109       1.22013
   168    C   18  S      Ryd( 4S)     0.00003       4.22156
   169    C   18  px     Val( 2p)     1.23562      -0.07505
   170    C   18  px     Ryd( 3p)     0.00234       0.70543
   171    C   18  py     Val( 2p)     1.19424      -0.06944
   172    C   18  py     Ryd( 3p)     0.00147       0.64308
   173    C   18  pz     Val( 2p)     0.94469      -0.05032
   174    C   18  pz     Ryd( 3p)     0.00180       0.54964
   175    C   18  dxy    Ryd( 3d)     0.00106       2.14396
   176    C   18  dxz    Ryd( 3d)     0.00079       1.89143
   177    C   18  dyz    Ryd( 3d)     0.00159       2.18657
   178    C   18  dx2y2  Ryd( 3d)     0.00051       1.96166
   179    C   18  dz2    Ryd( 3d)     0.00120       2.17605

   180    H   19  S      Val( 1S)     0.60790       0.15247
   181    H   19  S      Ryd( 2S)     0.00361       0.72285

   182    H   20  S      Val( 1S)     0.78544       0.08392
   183    H   20  S      Ryd( 2S)     0.00108       0.66047

   184    H   21  S      Val( 1S)     0.79991       0.08211
   185    H   21  S      Ryd( 2S)     0.00260       0.69218

   186    H   22  S      Val( 1S)     0.77125       0.09508
   187    H   22  S      Ryd( 2S)     0.00075       0.63560

   188    O   23  S      Cor( 1S)     1.99979     -18.86519
   189    O   23  S      Val( 2S)     1.69519      -0.88599
   190    O   23  S      Ryd( 3S)     0.00042       2.00279
   191    O   23  S      Ryd( 4S)     0.00006       3.55741
   192    O   23  px     Val( 2p)     1.86416      -0.25394
   193    O   23  px     Ryd( 3p)     0.00310       1.23941
   194    O   23  py     Val( 2p)     1.60032      -0.29292
   195    O   23  py     Ryd( 3p)     0.00047       1.27158
   196    O   23  pz     Val( 2p)     1.39185      -0.24159
   197    O   23  pz     Ryd( 3p)     0.00052       1.06332
   198    O   23  dxy    Ryd( 3d)     0.00365       2.09674
   199    O   23  dxz    Ryd( 3d)     0.00051       1.85764
   200    O   23  dyz    Ryd( 3d)     0.00398       2.02075
   201    O   23  dx2y2  Ryd( 3d)     0.00379       2.23145
   202    O   23  dz2    Ryd( 3d)     0.00169       1.99057

   203    C   24  S      Cor( 1S)     1.99930     -10.07212
   204    C   24  S      Val( 2S)     1.05553      -0.24667
   205    C   24  S      Ryd( 3S)     0.00049       1.44176
   206    C   24  S      Ryd( 4S)     0.00001       4.26396
   207    C   24  px     Val( 2p)     1.09240      -0.07118
   208    C   24  px     Ryd( 3p)     0.00206       0.52458
   209    C   24  py     Val( 2p)     1.06259      -0.08911
   210    C   24  py     Ryd( 3p)     0.00169       0.62109
   211    C   24  pz     Val( 2p)     1.23445      -0.08915
   212    C   24  pz     Ryd( 3p)     0.00193       0.83888
   213    C   24  dxy    Ryd( 3d)     0.00094       2.09970
   214    C   24  dxz    Ryd( 3d)     0.00095       2.08463
   215    C   24  dyz    Ryd( 3d)     0.00059       1.97725
   216    C   24  dx2y2  Ryd( 3d)     0.00075       2.20664
   217    C   24  dz2    Ryd( 3d)     0.00075       2.11148

   218    C   25  S      Cor( 1S)     1.99930     -10.07047
   219    C   25  S      Val( 2S)     1.05546      -0.24434
   220    C   25  S      Ryd( 3S)     0.00049       1.44305
   221    C   25  S      Ryd( 4S)     0.00001       4.26754
   222    C   25  px     Val( 2p)     1.04658      -0.07711
   223    C   25  px     Ryd( 3p)     0.00129       0.55460
   224    C   25  py     Val( 2p)     1.10302      -0.07832
   225    C   25  py     Ryd( 3p)     0.00248       0.59425
   226    C   25  pz     Val( 2p)     1.23589      -0.08650
   227    C   25  pz     Ryd( 3p)     0.00201       0.84078
   228    C   25  dxy    Ryd( 3d)     0.00068       2.10392
   229    C   25  dxz    Ryd( 3d)     0.00060       1.92886
   230    C   25  dyz    Ryd( 3d)     0.00090       2.12180
   231    C   25  dx2y2  Ryd( 3d)     0.00101       2.20666
   232    C   25  dz2    Ryd( 3d)     0.00079       2.12845

   233    H   26  S      Val( 1S)     0.75406       0.08688
   234    H   26  S      Ryd( 2S)     0.00115       0.62317

   235    H   27  S      Val( 1S)     0.75412       0.08686
   236    H   27  S      Ryd( 2S)     0.00115       0.62307

   237    H   28  S      Val( 1S)     0.75496       0.08959
   238    H   28  S      Ryd( 2S)     0.00115       0.62520

   239    H   29  S      Val( 1S)     0.75491       0.08965
   240    H   29  S      Ryd( 2S)     0.00115       0.62515

 WARNING:  1 low occupancy (<1.9990e) core orbital  found on  C 3
           1 low occupancy (<1.9990e) core orbital  found on  C 5
           1 low occupancy (<1.9990e) core orbital  found on  C 6
           1 low occupancy (<1.9990e) core orbital  found on  C 7
           1 low occupancy (<1.9990e) core orbital  found on  C 9


 Summary of Natural Population Analysis:                  
                                                          
                                       Natural Population 
                Natural  -----------------------------------------------
    Atom  No    Charge         Core      Valence    Rydberg      Total
 -----------------------------------------------------------------------
      H    1    0.23584      0.00000     0.76331    0.00085     0.76416
      C    2   -0.19950      1.99909     4.18855    0.01185     6.19950
      C    3   -0.23415      1.99896     4.22189    0.01329     6.23415
      H    4    0.24128      0.00000     0.75772    0.00100     0.75872
      C    5   -0.00493      1.99896     3.99018    0.01579     6.00493
      C    6   -0.03041      1.99896     4.01553    0.01592     6.03041
      C    7   -0.17680      1.99894     4.16383    0.01404     6.17680
      H    8    0.25970      0.00000     0.73831    0.00199     0.74030
      C    9   -0.15348      1.99897     4.13920    0.01532     6.15348
      C   10    0.55826      1.99924     3.40392    0.03858     5.44174
      C   11   -0.13565      1.99918     4.11881    0.01766     6.13565
      C   12   -0.67498      1.99941     4.66692    0.00865     6.67498
      H   13    0.23172      0.00000     0.76731    0.00097     0.76828
      H   14    0.24694      0.00000     0.75172    0.00134     0.75306
      H   15    0.23429      0.00000     0.76438    0.00133     0.76571
      N   16   -0.68962      1.99957     5.67328    0.01677     7.68962
      H   17    0.23489      0.00000     0.76334    0.00177     0.76511
      C   18   -0.47374      1.99951     4.46236    0.01188     6.47374
      H   19    0.38848      0.00000     0.60790    0.00361     0.61152
      H   20    0.21348      0.00000     0.78544    0.00108     0.78652
      H   21    0.19749      0.00000     0.79991    0.00260     0.80251
      H   22    0.22799      0.00000     0.77125    0.00075     0.77201
      O   23   -0.56949      1.99979     6.55152    0.01818     8.56949
      C   24   -0.45444      1.99930     4.44497    0.01017     6.45444
      C   25   -0.45051      1.99930     4.44094    0.01027     6.45051
      H   26    0.24479      0.00000     0.75406    0.00115     0.75521
      H   27    0.24473      0.00000     0.75412    0.00115     0.75527
      H   28    0.24389      0.00000     0.75496    0.00115     0.75611
      H   29    0.24394      0.00000     0.75491    0.00115     0.75606
 =======================================================================
   * Total *    0.00000     27.98918    73.77053    0.24029   102.00000

                                 Natural Population      
 --------------------------------------------------------
   Core                      27.98918 ( 99.9613% of  28)
   Valence                   73.77053 ( 99.6899% of  74)
   Natural Minimal Basis    101.75971 ( 99.7644% of 102)
   Natural Rydberg Basis      0.24029 (  0.2356% of 102)
 --------------------------------------------------------

    Atom  No          Natural Electron Configuration
 ----------------------------------------------------------------------------
      H    1            1S( 0.76)
      C    2      [core]2S( 0.95)2p( 3.24)3p( 0.01)
      C    3      [core]2S( 0.95)2p( 3.27)3p( 0.01)
      H    4            1S( 0.76)
      C    5      [core]2S( 0.89)2p( 3.11)3p( 0.01)
      C    6      [core]2S( 0.88)2p( 3.14)3p( 0.01)
      C    7      [core]2S( 0.95)2p( 3.21)3p( 0.01)
      H    8            1S( 0.74)
      C    9      [core]2S( 0.91)2p( 3.23)3p( 0.01)
      C   10      [core]2S( 0.86)2p( 2.55)3S( 0.01)3p( 0.03)3d( 0.01)
      C   11      [core]2S( 0.97)2p( 3.15)3p( 0.01)3d( 0.01)
      C   12      [core]2S( 1.11)2p( 3.56)
      H   13            1S( 0.77)
      H   14            1S( 0.75)
      H   15            1S( 0.76)
      N   16      [core]2S( 1.35)2p( 4.32)3p( 0.01)
      H   17            1S( 0.76)
      C   18      [core]2S( 1.09)2p( 3.37)3p( 0.01)3d( 0.01)
      H   19            1S( 0.61)
      H   20            1S( 0.79)
      H   21            1S( 0.80)
      H   22            1S( 0.77)
      O   23      [core]2S( 1.70)2p( 4.86)3d( 0.01)
      C   24      [core]2S( 1.06)2p( 3.39)3p( 0.01)
      C   25      [core]2S( 1.06)2p( 3.39)3p( 0.01)
      H   26            1S( 0.75)
      H   27            1S( 0.75)
      H   28            1S( 0.75)
      H   29            1S( 0.75)


 NATURAL BOND ORBITAL ANALYSIS:

                       Occupancies       Lewis Structure    Low   High
           Occ.    -------------------  -----------------   occ   occ
  Cycle   Thresh.   Lewis   Non-Lewis     CR  BD  3C  LP    (L)   (NL)   Dev
 =============================================================================
   1(1)    1.90    97.85623   4.14377     14  32   0   5     5      5    0.45
   2(2)    1.90    97.85623   4.14377     14  32   0   5     5      5    0.45
   3(1)    1.80    98.24180   3.75820     14  31   0   6     3      4    0.45
   4(2)    1.80    98.24180   3.75820     14  31   0   6     3      4    0.45
   5(1)    1.70    98.24180   3.75820     14  31   0   6     3      4    0.45
   6(2)    1.70    98.24180   3.75820     14  31   0   6     3      4    0.45
   7(1)    1.60    99.55302   2.44698     14  33   0   4     1      4    0.41
   8(2)    1.60   100.13685   1.86315     14  34   0   3     0      4    0.43
   9(3)    1.60    99.55302   2.44698     14  33   0   4     1      4    0.41
  10(4)    1.60   100.13685   1.86315     14  34   0   3     0      4    0.43
  11(5)    1.60    99.55302   2.44698     14  33   0   4     1      4    0.41
  12(6)    1.60   100.13685   1.86315     14  34   0   3     0      4    0.43
  13(7)    1.60    99.55302   2.44698     14  33   0   4     1      4    0.41
  14(8)    1.60   100.13685   1.86315     14  34   0   3     0      4    0.43
  15(9)    1.60    99.55302   2.44698     14  33   0   4     1      4    0.41
  16(1)    1.50   100.13685   1.86315     14  34   0   3     0      4    0.43
  17(2)    1.50   100.06162   1.93838     14  34   0   3     0      4    0.45
  18(3)    1.50    99.55302   2.44698     14  33   0   4     1      4    0.41
  19(4)    1.50   100.13685   1.86315     14  34   0   3     0      4    0.43
  20(5)    1.50   100.06162   1.93838     14  34   0   3     0      4    0.45
  21(6)    1.50    99.55302   2.44698     14  33   0   4     1      4    0.41
  22(7)    1.50   100.13685   1.86315     14  34   0   3     0      4    0.43
  23(8)    1.50   100.06162   1.93838     14  34   0   3     0      4    0.45
  24(9)    1.50    99.55302   2.44698     14  33   0   4     1      4    0.41
  25(1)    1.60   100.13685   1.86315     14  34   0   3     0      4    0.43
 -----------------------------------------------------------------------------

 Structure accepted: RESONANCE keyword permits strongly delocalized structure

 WARNING:  1 low occupancy (<1.9990e) core orbital  found on  C 3
           1 low occupancy (<1.9990e) core orbital  found on  C 5
           1 low occupancy (<1.9990e) core orbital  found on  C 6
           1 low occupancy (<1.9990e) core orbital  found on  C 7
           1 low occupancy (<1.9990e) core orbital  found on  C 9

 --------------------------------------------------------
   Core                     27.98919 ( 99.961% of  28)
   Valence Lewis            72.14766 ( 97.497% of  74)
  ==================       ============================
   Total Lewis             100.13685 ( 98.173% of 102)
  -----------------------------------------------------
   Valence non-Lewis         1.69862 (  1.665% of 102)
   Rydberg non-Lewis         0.16453 (  0.161% of 102)
  ==================       ============================
   Total non-Lewis           1.86315 (  1.827% of 102)
 --------------------------------------------------------


       (Occupancy)   Bond orbital/ Coefficients/ Hybrids
 ---------------------------------------------------------------------------------
     1. (1.98050) BD ( 1) H   1 - C   2  
                ( 38.15%)   0.6177* H   1 s(100.00%)
                                            1.0000  0.0014
                ( 61.85%)   0.7864* C   2 s( 29.13%)p 2.43( 70.81%)d 0.00(  0.06%)
                                           -0.0003  0.5396  0.0110 -0.0019 -0.6074
                                            0.0156  0.5647 -0.0011  0.1416  0.0016
                                           -0.0193 -0.0047  0.0051  0.0014 -0.0114
     2. (1.97628) BD ( 1) C   2 - C   3  
                ( 50.04%)   0.7074* C   2 s( 35.66%)p 1.80( 64.31%)d 0.00(  0.04%)
                                            0.0000  0.5971 -0.0090  0.0001  0.7617
                                            0.0035  0.2198  0.0330  0.1157  0.0104
                                            0.0067  0.0041  0.0017  0.0146 -0.0103
                ( 49.96%)   0.7068* C   3 s( 34.68%)p 1.88( 65.28%)d 0.00(  0.04%)
                                           -0.0002  0.5888 -0.0092 -0.0009 -0.7768
                                           -0.0237 -0.1903  0.0273 -0.1083  0.0074
                                            0.0111  0.0054  0.0027  0.0121 -0.0099
     3. (1.97706) BD ( 1) C   2 - C   9  
                ( 49.19%)   0.7014* C   2 s( 35.16%)p 1.84( 64.80%)d 0.00(  0.04%)
                                            0.0000 -0.5929  0.0052 -0.0022  0.2147
                                            0.0184  0.7343  0.0034  0.2498  0.0017
                                           -0.0074 -0.0027 -0.0105  0.0129  0.0087
                ( 50.81%)   0.7128* C   9 s( 35.03%)p 1.85( 64.93%)d 0.00(  0.04%)
                                            0.0002 -0.5918  0.0088 -0.0005 -0.1929
                                            0.0103 -0.7428 -0.0107 -0.2450 -0.0033
                                           -0.0070 -0.0025 -0.0095  0.0120  0.0078
     4. (1.65096) BD ( 2) C   2 - C   9  
                ( 47.48%)   0.6891* C   2 s(  0.00%)p 1.00( 99.96%)d 0.00(  0.03%)
                                            0.0000  0.0026 -0.0014 -0.0004 -0.0588
                                           -0.0005 -0.3041  0.0012  0.9506 -0.0046
                                            0.0001  0.0033 -0.0150 -0.0057 -0.0088
                ( 52.52%)   0.7247* C   9 s(  0.00%)p 1.00( 99.98%)d 0.00(  0.02%)
                                            0.0000  0.0015 -0.0017 -0.0002 -0.0574
                                           -0.0017 -0.3004  0.0000  0.9520  0.0012
                                           -0.0021  0.0041  0.0102  0.0030  0.0070
     5. (1.98310) BD ( 1) C   3 - H   4  
                ( 62.25%)   0.7890* C   3 s( 30.32%)p 2.30( 69.63%)d 0.00(  0.05%)
                                           -0.0003  0.5505  0.0130 -0.0009  0.1923
                                           -0.0044  0.7700 -0.0129  0.2573 -0.0044
                                            0.0080  0.0027  0.0110 -0.0152 -0.0082
                ( 37.75%)   0.6144* H   4 s(100.00%)
                                            1.0000  0.0020
     6. (1.98236) BD ( 1) C   3 - C   5  
                ( 49.13%)   0.7009* C   3 s( 34.96%)p 1.86( 64.99%)d 0.00(  0.04%)
                                           -0.0001  0.5912 -0.0088  0.0018  0.5951
                                            0.0293 -0.5267  0.0125 -0.1316  0.0058
                                           -0.0168 -0.0042  0.0051 -0.0003 -0.0102
                ( 50.87%)   0.7133* C   5 s( 38.63%)p 1.59( 61.34%)d 0.00(  0.03%)
                                           -0.0001  0.6214 -0.0131  0.0021 -0.4667
                                            0.0230  0.6064  0.0212  0.1637  0.0082
                                           -0.0155 -0.0041  0.0035 -0.0005 -0.0073
     7. (1.63846) BD ( 2) C   3 - C   5  
                ( 51.71%)   0.7191* C   3 s(  0.00%)p 1.00( 99.96%)d 0.00(  0.04%)
                                            0.0000  0.0001 -0.0001  0.0000 -0.0582
                                            0.0003 -0.3032  0.0019  0.9509 -0.0063
                                            0.0003  0.0031 -0.0172 -0.0062 -0.0102
                ( 48.29%)   0.6949* C   5 s(  0.00%)p 1.00( 99.97%)d 0.00(  0.03%)
                                            0.0000  0.0003 -0.0001  0.0000 -0.0591
                                            0.0000 -0.3027  0.0004  0.9511 -0.0011
                                            0.0053 -0.0170  0.0017  0.0015 -0.0010
     8. (1.96650) BD ( 1) C   5 - C   6  
                ( 50.09%)   0.7077* C   5 s( 30.59%)p 2.27( 69.36%)d 0.00(  0.05%)
                                           -0.0001  0.5530  0.0102  0.0010 -0.3053
                                           -0.0123 -0.7326 -0.0043 -0.2523 -0.0021
                                            0.0096  0.0036  0.0111 -0.0124 -0.0097
                ( 49.91%)   0.7065* C   6 s( 30.40%)p 2.29( 69.55%)d 0.00(  0.05%)
                                           -0.0001  0.5513  0.0096  0.0009  0.1075
                                           -0.0090  0.7860  0.0105  0.2569  0.0028
                                            0.0064  0.0024  0.0115 -0.0145 -0.0096
     9. (1.97930) BD ( 1) C   5 - C  24  
                ( 51.05%)   0.7145* C   5 s( 30.68%)p 2.26( 69.28%)d 0.00(  0.04%)
                                           -0.0003  0.5538  0.0019 -0.0030  0.8272
                                           -0.0169  0.0501  0.0338  0.0671  0.0097
                                           -0.0067  0.0000  0.0001  0.0160 -0.0102
                ( 48.95%)   0.6996* C  24 s( 25.25%)p 2.96( 74.69%)d 0.00(  0.06%)
                                            0.0002  0.5025 -0.0040  0.0006 -0.7980
                                            0.0046  0.3265  0.0194  0.0546  0.0065
                                           -0.0114 -0.0012  0.0003  0.0180 -0.0122
    10. (1.98167) BD ( 1) C   6 - C   7  
                ( 50.84%)   0.7130* C   6 s( 38.86%)p 1.57( 61.11%)d 0.00(  0.03%)
                                           -0.0001  0.6232 -0.0126  0.0023 -0.7103
                                            0.0101 -0.2943 -0.0297 -0.1374 -0.0089
                                            0.0083  0.0043  0.0006  0.0136 -0.0078
                ( 49.16%)   0.7011* C   7 s( 35.51%)p 1.82( 64.45%)d 0.00(  0.04%)
                                           -0.0001  0.5957 -0.0129  0.0005  0.7774
                                            0.0176  0.1696 -0.0272  0.1011 -0.0076
                                            0.0095  0.0050  0.0020  0.0139 -0.0100
    11. (1.64534) BD ( 2) C   6 - C   7  
                ( 51.77%)   0.7195* C   6 s(  0.00%)p 1.00( 99.97%)d 0.00(  0.03%)
                                            0.0000  0.0001 -0.0001  0.0000 -0.0583
                                            0.0001 -0.3030  0.0006  0.9510 -0.0020
                                            0.0042 -0.0148  0.0074  0.0034  0.0028
                ( 48.23%)   0.6945* C   7 s(  0.00%)p 1.00( 99.95%)d 0.00(  0.05%)
                                            0.0000 -0.0004 -0.0001  0.0000 -0.0573
                                           -0.0002 -0.3027 -0.0007  0.9511  0.0019
                                           -0.0055  0.0142  0.0134  0.0039  0.0099
    12. (1.97887) BD ( 1) C   6 - C  25  
                ( 50.99%)   0.7141* C   6 s( 30.63%)p 2.26( 69.33%)d 0.00(  0.04%)
                                           -0.0003  0.5535  0.0021 -0.0032  0.6922
                                           -0.0320 -0.4498 -0.0217 -0.1010 -0.0089
                                           -0.0099 -0.0012  0.0005  0.0141 -0.0101
                ( 49.01%)   0.7000* C  25 s( 25.31%)p 2.95( 74.63%)d 0.00(  0.06%)
                                            0.0002  0.5031 -0.0038  0.0005 -0.8565
                                           -0.0051  0.1092 -0.0194 -0.0178 -0.0065
                                           -0.0098 -0.0007  0.0001  0.0188 -0.0122
    13. (1.98082) BD ( 1) C   7 - H   8  
                ( 63.29%)   0.7956* C   7 s( 30.72%)p 2.25( 69.23%)d 0.00(  0.05%)
                                            0.0003 -0.5541 -0.0130  0.0013  0.2253
                                           -0.0054  0.7592 -0.0122  0.2549 -0.0043
                                           -0.0098 -0.0034 -0.0106  0.0138  0.0082
                ( 36.71%)   0.6059* H   8 s(100.00%)
                                           -1.0000 -0.0044
    14. (1.97042) BD ( 1) C   7 - C   9  
                ( 49.05%)   0.7003* C   7 s( 33.74%)p 1.96( 66.22%)d 0.00(  0.04%)
                                           -0.0001  0.5809 -0.0061  0.0010 -0.5832
                                           -0.0172  0.5496 -0.0094  0.1400 -0.0040
                                           -0.0161 -0.0041  0.0058 -0.0025 -0.0099
                ( 50.95%)   0.7138* C   9 s( 34.07%)p 1.93( 65.89%)d 0.00(  0.03%)
                                           -0.0001  0.5837 -0.0026  0.0007  0.5654
                                           -0.0059 -0.5640 -0.0104 -0.1448 -0.0043
                                           -0.0149 -0.0036  0.0047  0.0000 -0.0094
    15. (1.98008) BD ( 1) C   9 - C  10  
                ( 52.25%)   0.7229* C   9 s( 30.87%)p 2.24( 69.09%)d 0.00(  0.04%)
                                           -0.0001  0.5556  0.0055 -0.0014 -0.7994
                                            0.0142 -0.1980 -0.0006 -0.1115  0.0016
                                            0.0079  0.0046  0.0015  0.0150 -0.0100
                ( 47.75%)   0.6910* C  10 s( 35.98%)p 1.78( 63.96%)d 0.00(  0.05%)
                                            0.0001  0.5998  0.0045 -0.0007  0.7662
                                           -0.0054  0.2022 -0.0086  0.1076  0.0003
                                            0.0122  0.0052 -0.0007  0.0174 -0.0077
    16. (1.98203) BD ( 1) C  10 - C  11  
                ( 49.38%)   0.7027* C  10 s( 34.57%)p 1.89( 65.38%)d 0.00(  0.05%)
                                           -0.0001  0.5875  0.0223  0.0000 -0.6112
                                            0.0104  0.5190 -0.0231  0.1016 -0.0008
                                           -0.0200 -0.0037  0.0021  0.0008 -0.0077
                ( 50.62%)   0.7115* C  11 s( 25.31%)p 2.95( 74.62%)d 0.00(  0.06%)
                                            0.0002  0.5031  0.0053  0.0002  0.6341
                                           -0.0035 -0.5828 -0.0003 -0.0665  0.0065
                                           -0.0216 -0.0028  0.0028  0.0045 -0.0111
    17. (1.99559) BD ( 1) C  10 - O  23  
                ( 33.82%)   0.5815* C  10 s( 29.39%)p 2.40( 70.49%)d 0.00(  0.12%)
                                            0.0001 -0.5397  0.0509  0.0020  0.1836
                                            0.0174  0.7812  0.0678  0.2356  0.0219
                                           -0.0131 -0.0035 -0.0153  0.0266  0.0098
                ( 66.18%)   0.8135* O  23 s( 43.13%)p 1.31( 56.55%)d 0.01(  0.33%)
                                            0.0000 -0.6566  0.0085  0.0009 -0.1737
                                           -0.0015 -0.7003 -0.0089 -0.2117 -0.0033
                                           -0.0223 -0.0065 -0.0251  0.0415  0.0200
    18. (1.97486) BD ( 2) C  10 - O  23  
                ( 32.40%)   0.5692* C  10 s(  0.00%)p 1.00( 99.82%)d 0.00(  0.17%)
                                            0.0000  0.0043 -0.0010 -0.0001 -0.0666
                                            0.0021 -0.2708  0.0080  0.9591 -0.0214
                                            0.0043 -0.0064 -0.0346 -0.0099 -0.0196
                ( 67.60%)   0.8222* O  23 s(  0.00%)p 1.00( 99.68%)d 0.00(  0.32%)
[...]
                                                    56(v),87(v),67(g)
   8. BD (   1) C   5 - C   6          1.96650    -0.65175  216(g),212(g),211(v),219(v)
                                                    95(v),64(v),238(v),237(v)
                                                    240(v),239(v),215(g),218(g)
   9. BD (   1) C   5 - C  24          1.97930    -0.59009  216(v),212(g),208(v),214(g)
                                                    240(v),239(v),63(v),84(v)
                                                    237(g),238(g)
  10. BD (   1) C   6 - C   7          1.98167    -0.71086  214(g),221(v),220(g),105(v)
                                                    218(g),219(g),75(v),215(v)
  11. BD (   2) C   6 - C   7          1.64534    -0.24570  213(v),210(v),239(v),240(v)
                                                    77(v)
  12. BD (   1) C   6 - C  25          1.97887    -0.58571  212(v),216(g),220(v),214(g)
                                                    238(v),237(v),94(v),74(v)
                                                    239(g),240(g)
  13. BD (   1) C   7 - H   8          1.98082    -0.51662  209(v),214(v),216(g),84(v)
                                                    220(g),106(v),105(v)
  14. BD (   1) C   7 - C   9          1.97042    -0.67362  218(v),209(g),216(g),222(v)
                                                    207(v),84(v),221(g),115(v)
                                                    219(g),54(v)
  15. BD (   1) C   9 - C  10          1.98008    -0.65124  208(v),209(g),216(v),220(g)
                                                    94(v),53(v),226(v),173(v)
                                                    125(v),127(v),223(g)
  16. BD (   1) C  10 - C  11          1.98203    -0.60913  220(v),229(v),105(v),173(v)
                                                    148(v),136(v),106(v),227(g)
                                                    225(g)
  17. BD (   1) C  10 - O  23          1.99559    -1.06192  115(g),209(v),221(g),222(g)
                                                    106(v)
  18. BD (   2) C  10 - O  23          1.97486    -0.36423  210(v),225(v),227(v)
  19. BD (   1) C  11 - C  12          1.96886    -0.58634  224(v),231(v),117(v),149(v)
                                                    227(g),148(v),222(g),229(g)
  20. BD (   1) C  11 - N  16          1.98473    -0.69416  221(v),228(v),235(v),135(v)
                                                    159(v),115(v),161(v)
  21. BD (   1) C  11 - H  17          1.96914    -0.50084  232(v),223(v),230(v),224(v)
  22. BD (   1) C  12 - H  13          1.98865    -0.49639  226(v)
  23. BD (   1) C  12 - H  14          1.98661    -0.48840  222(v)
  24. BD (   1) C  12 - H  15          1.98978    -0.49110  227(v),127(v)
  25. BD (   1) N  16 - C  18          1.99103    -0.67893  225(v),125(v),127(v)
  26. BD (   1) N  16 - H  19          1.97990    -0.57691  227(v),233(v),126(v),161(v)
  27. BD (   1) C  18 - H  20          1.99143    -0.49145  232(v)
  28. BD (   1) C  18 - H  21          1.99734    -0.49166  148(v)
  29. BD (   1) C  18 - H  22          1.99044    -0.49099  226(v)
  30. BD (   1) C  24 - C  25          1.97704    -0.53882  212(v),216(v),215(g),218(g)
  31. BD (   1) C  24 - H  26          1.98071    -0.51001  213(v),77(v),239(v),194(v)
  32. BD (   1) C  24 - H  27          1.98073    -0.51004  213(v),77(v),240(v),194(v)
  33. BD (   1) C  25 - H  28          1.98198    -0.50789  217(v),87(v),237(v),184(v)
  34. BD (   1) C  25 - H  29          1.98201    -0.50791  217(v),87(v),238(v),184(v)
  35. CR (   1) C   2                  1.99910   -10.05738  105(v),64(v),220(v),221(v)
                                                    212(v),211(v)
  36. CR (   1) C   3                  1.99896   -10.04932  215(v),75(v),54(v),76(v)
                                                    209(v),214(v),207(v),212(g)
                                                    57(v)
  37. CR (   1) C   5                  1.99896   -10.04751  84(v),216(v),214(g),64(v)
                                                    211(v),185(v),85(v),63(v)
  38. CR (   1) C   6                  1.99896   -10.04232  74(v),94(v),212(v),214(g)
                                                    219(v),75(v),195(v),220(v)
  39. CR (   1) C   7                  1.99894   -10.04243  218(v),85(v),106(v),209(v)
                                                    86(v),221(v),214(v),216(g)
                                                    104(v)
  40. CR (   1) C   9                  1.99897   -10.05372  95(v),54(v),116(v),208(v)
                                                    216(v),207(v),222(v),219(v)
  41. CR (   1) C  10                  1.99924   -10.13765  209(v),127(v),126(v),105(v)
                                                    106(v)
  42. CR (   1) C  11                  1.99918   -10.08379  116(v),137(v),221(v),231(v)
  43. CR (   1) C  12                  1.99941   -10.04748  127(v)
  44. CR (   1) N  16                  1.99957   -14.14341  126(v),161(v),162(v)
  45. CR (   1) C  18                  1.99950   -10.07285  226(v)
  46. CR (   1) O  23                  1.99979   -18.86641  115(v),221(v)
  47. CR (   1) C  24                  1.99930   -10.07204  212(v),74(v)
  48. CR (   1) C  25                  1.99930   -10.07038  216(v),84(v)
  49. LP (   1) N  16                  1.91996    -0.27503  222(v),234(v),225(v),233(v)
                                                    126(v),160(v),235(v),128(v)
                                                    159(v),127(v)
  50. LP (   1) O  23                  1.97768    -0.67666  115(v),221(v),222(v)
  51. LP (   2) O  23                  1.88545    -0.25443  222(v),221(v),119(v),118(v)
                                                    232(r),116(v)
  52. RY*(   1) H   1                  0.00085     0.65283   
  53. RY*(   1) C   2                  0.00453     1.27994   
  54. RY*(   2) C   2                  0.00220     0.85665   
  55. RY*(   3) C   2                  0.00073     1.88251   
  56. RY*(   4) C   2                  0.00054     0.75696   
  57. RY*(   5) C   2                  0.00029     1.17733   
  58. RY*(   6) C   2                  0.00010     2.31602   
  59. RY*(   7) C   2                  0.00004     3.58338   
  60. RY*(   8) C   2                  0.00004     2.25785   
  61. RY*(   9) C   2                  0.00002     1.85746   
  62. RY*(  10) C   2                  0.00001     2.73245   
  63. RY*(   1) C   3                  0.00435     1.25890   
  64. RY*(   2) C   3                  0.00287     0.73137   
  65. RY*(   3) C   3                  0.00061     1.28150   
  66. RY*(   4) C   3                  0.00056     1.33626   
  67. RY*(   5) C   3                  0.00043     1.34937   
  68. RY*(   6) C   3                  0.00008     2.38298   
  69. RY*(   7) C   3                  0.00003     3.66537   
  70. RY*(   8) C   3                  0.00003     2.24305   
  71. RY*(   9) C   3                  0.00001     2.01686   
  72. RY*(  10) C   3                  0.00001     2.20390   
  73. RY*(   1) H   4                  0.00101     0.54777   
  74. RY*(   1) C   5                  0.00441     1.08791   
  75. RY*(   2) C   5                  0.00246     1.32514   
  76. RY*(   3) C   5                  0.00188     1.31965   
  77. RY*(   4) C   5                  0.00178     0.87303   
  78. RY*(   5) C   5                  0.00071     1.92319   
  79. RY*(   6) C   5                  0.00011     1.77321   
  80. RY*(   7) C   5                  0.00011     1.84769   
  81. RY*(   8) C   5                  0.00007     2.46903   
  82. RY*(   9) C   5                  0.00005     3.81685   
  83. RY*(  10) C   5                  0.00001     2.78059   
  84. RY*(   1) C   6                  0.00435     1.09117   
  85. RY*(   2) C   6                  0.00253     1.29904   
  86. RY*(   3) C   6                  0.00191     1.37136   
  87. RY*(   4) C   6                  0.00183     0.88051   
  88. RY*(   5) C   6                  0.00060     1.92281   
  89. RY*(   6) C   6                  0.00010     1.92685   
  90. RY*(   7) C   6                  0.00011     1.78425   
  91. RY*(   8) C   6                  0.00008     2.37337   
  92. RY*(   9) C   6                  0.00006     3.97775   
  93. RY*(  10) C   6                  0.00001     2.65700   
  94. RY*(   1) C   7                  0.00550     1.12226   
  95. RY*(   2) C   7                  0.00334     0.96361   
  96. RY*(   3) C   7                  0.00062     1.26397   
  97. RY*(   4) C   7                  0.00054     1.88750   
  98. RY*(   5) C   7                  0.00044     0.76434   
  99. RY*(   6) C   7                  0.00009     2.45171   
 100. RY*(   7) C   7                  0.00005     3.80803   
 101. RY*(   8) C   7                  0.00004     2.22395   
 102. RY*(   9) C   7                  0.00001     1.94445   
 103. RY*(  10) C   7                  0.00001     2.37482   
 104. RY*(   1) H   8                  0.00200     0.58753   
 105. RY*(   1) C   9                  0.00580     1.27910   
 106. RY*(   2) C   9                  0.00515     1.23183   
 107. RY*(   3) C   9                  0.00090     1.18821   
 108. RY*(   4) C   9                  0.00070     1.90906   
 109. RY*(   5) C   9                  0.00059     0.76866   
 110. RY*(   6) C   9                  0.00024     1.86525   
 111. RY*(   7) C   9                  0.00016     2.34511   
 112. RY*(   8) C   9                  0.00009     2.73196   
 113. RY*(   9) C   9                  0.00006     3.41406   
 114. RY*(  10) C   9                  0.00002     2.76239   
 115. RY*(   1) C  10                  0.01724     0.85198   
 116. RY*(   2) C  10                  0.00471     1.41125   
 117. RY*(   3) C  10                  0.00282     1.24405   
 118. RY*(   4) C  10                  0.00219     1.52587   
 119. RY*(   5) C  10                  0.00151     1.71097   
 120. RY*(   6) C  10                  0.00079     1.92801   
 121. RY*(   7) C  10                  0.00033     2.63412   
 122. RY*(   8) C  10                  0.00010     3.85041   
 123. RY*(   9) C  10                  0.00005     1.82117   
 124. RY*(  10) C  10                  0.00002     2.39497   
 125. RY*(   1) C  11                  0.00411     1.10346   
 126. RY*(   2) C  11                  0.00347     0.92351   
 127. RY*(   3) C  11                  0.00238     1.00257   
 128. RY*(   4) C  11                  0.00136     1.98206   
 129. RY*(   5) C  11                  0.00051     1.99370   
 130. RY*(   6) C  11                  0.00037     1.72635   
 131. RY*(   7) C  11                  0.00022     1.95478   
 132. RY*(   8) C  11                  0.00015     2.10684   
 133. RY*(   9) C  11                  0.00009     2.13212   
 134. RY*(  10) C  11                  0.00002     4.34334   
 135. RY*(   1) C  12                  0.00253     0.80214   
 136. RY*(   2) C  12                  0.00152     0.98980   
 137. RY*(   3) C  12                  0.00045     0.96930   
 138. RY*(   4) C  12                  0.00019     1.03572   
 139. RY*(   5) C  12                  0.00009     2.12020   
 140. RY*(   6) C  12                  0.00003     1.84595   
 141. RY*(   7) C  12                  0.00000     4.10624   
 142. RY*(   8) C  12                  0.00001     2.14014   
 143. RY*(   9) C  12                  0.00001     1.89799   
 144. RY*(  10) C  12                  0.00001     1.99626   
 145. RY*(   1) H  13                  0.00097     0.68678   
 146. RY*(   1) H  14                  0.00135     0.65334   
 147. RY*(   1) H  15                  0.00133     0.66408   
 148. RY*(   1) N  16                  0.00503     0.91704   
 149. RY*(   2) N  16                  0.00181     1.30368   
 150. RY*(   3) N  16                  0.00078     1.30965   
 151. RY*(   4) N  16                  0.00039     1.50154   
 152. RY*(   5) N  16                  0.00023     1.97066   
 153. RY*(   6) N  16                  0.00007     2.02413   
 154. RY*(   7) N  16                  0.00005     2.13962   
 155. RY*(   8) N  16                  0.00003     2.15970   
 156. RY*(   9) N  16                  0.00001     2.07389   
 157. RY*(  10) N  16                  0.00000     3.82607   
 158. RY*(   1) H  17                  0.00178     0.71826   
 159. RY*(   1) C  18                  0.00242     1.13246   
 160. RY*(   2) C  18                  0.00153     1.58172   
 161. RY*(   3) C  18                  0.00109     0.67674   
 162. RY*(   4) C  18                  0.00059     1.15670   
 163. RY*(   5) C  18                  0.00008     1.57647   
 164. RY*(   6) C  18                  0.00001     2.00424   
 165. RY*(   7) C  18                  0.00000     4.13398   
 166. RY*(   8) C  18                  0.00001     1.25309   
 167. RY*(   9) C  18                  0.00000     1.99814   
 168. RY*(  10) C  18                  0.00001     2.16003   
 169. RY*(   1) H  19                  0.00367     0.71624   
 170. RY*(   1) H  20                  0.00109     0.65932   
 171. RY*(   1) H  21                  0.00264     0.68838   
 172. RY*(   1) H  22                  0.00075     0.63512   
 173. RY*(   1) O  23                  0.00299     1.22960   
 174. RY*(   2) O  23                  0.00043     1.30375   
 175. RY*(   3) O  23                  0.00032     1.81360   
 176. RY*(   4) O  23                  0.00014     2.06027   
 177. RY*(   5) O  23                  0.00007     2.27391   
 178. RY*(   6) O  23                  0.00004     2.11146   
 179. RY*(   7) O  23                  0.00001     1.81765   
 180. RY*(   8) O  23                  0.00001     2.07378   
 181. RY*(   9) O  23                  0.00001     2.59470   
 182. RY*(  10) O  23                  0.00001     2.05333   
 183. RY*(   1) C  24                  0.00264     0.90937   
 184. RY*(   2) C  24                  0.00185     1.19077   
 185. RY*(   3) C  24                  0.00070     0.68379   
 186. RY*(   4) C  24                  0.00043     1.89565   
 187. RY*(   5) C  24                  0.00023     1.37202   
 188. RY*(   6) C  24                  0.00010     1.85911   
 189. RY*(   7) C  24                  0.00002     2.29397   
 190. RY*(   8) C  24                  0.00001     1.87376   
 191. RY*(   9) C  24                  0.00000     4.03630   
 192. RY*(  10) C  24                  0.00001     2.04045   
 193. RY*(   1) C  25                  0.00266     0.90182   
 194. RY*(   2) C  25                  0.00189     1.18772   
 195. RY*(   3) C  25                  0.00069     0.68096   
 196. RY*(   4) C  25                  0.00043     1.89550   
 197. RY*(   5) C  25                  0.00022     1.37161   
 198. RY*(   6) C  25                  0.00010     1.87084   
 199. RY*(   7) C  25                  0.00002     2.29493   
 200. RY*(   8) C  25                  0.00001     1.87767   
 201. RY*(   9) C  25                  0.00000     4.04677   
 202. RY*(  10) C  25                  0.00001     2.04719   
 203. RY*(   1) H  26                  0.00116     0.62184   
 204. RY*(   1) H  27                  0.00116     0.62174   
 205. RY*(   1) H  28                  0.00116     0.62387   
 206. RY*(   1) H  29                  0.00116     0.62381   
 207. BD*(   1) H   1 - C   2          0.01250     0.47154   
 208. BD*(   1) C   2 - C   3          0.01365     0.56888   
 209. BD*(   1) C   2 - C   9          0.02215     0.56283   
 210. BD*(   2) C   2 - C   9          0.37826     0.02846  224(v),213(v),217(v),56(g)
                                                    109(g),55(g)
 211. BD*(   1) C   3 - H   4          0.01456     0.46472   
 212. BD*(   1) C   3 - C   5          0.02971     0.59665   
 213. BD*(   2) C   3 - C   5          0.32284     0.04242  217(v),210(v),65(g),237(v)
                                                    238(v)
 214. BD*(   1) C   5 - C   6          0.02090     0.56512   
 215. BD*(   1) C   5 - C  24          0.01491     0.39648   
 216. BD*(   1) C   6 - C   7          0.02842     0.61641   
 217. BD*(   2) C   6 - C   7          0.28574     0.04973  213(v),210(v),98(g),239(v)
                                                    240(v)
 218. BD*(   1) C   6 - C  25          0.01565     0.39792   
 219. BD*(   1) C   7 - H   8          0.01772     0.48257   
 220. BD*(   1) C   7 - C   9          0.02052     0.55736   
 221. BD*(   1) C   9 - C  10          0.06304     0.44826   
 222. BD*(   1) C  10 - C  11          0.08603     0.37215   
 223. BD*(   1) C  10 - O  23          0.00851     0.58833   
 224. BD*(   2) C  10 - O  23          0.13562     0.02306  210(v),225(v)
 225. BD*(   1) C  11 - C  12          0.01694     0.37532   
 226. BD*(   1) C  11 - N  16          0.02100     0.38482   
 227. BD*(   1) C  11 - H  17          0.02278     0.45216   
 228. BD*(   1) C  12 - H  13          0.00571     0.45698   
 229. BD*(   1) C  12 - H  14          0.00662     0.46670   
 230. BD*(   1) C  12 - H  15          0.00788     0.45333   
 231. BD*(   1) N  16 - C  18          0.00573     0.37712   
 232. BD*(   1) N  16 - H  19          0.02080     0.47564   
 233. BD*(   1) C  18 - H  20          0.01153     0.45618   
 234. BD*(   1) C  18 - H  21          0.02634     0.45301   
 235. BD*(   1) C  18 - H  22          0.00686     0.46788   
 236. BD*(   1) C  24 - C  25          0.00157     0.32190   
 237. BD*(   1) C  24 - H  26          0.01352     0.45509   
 238. BD*(   1) C  24 - H  27          0.01354     0.45510   
 239. BD*(   1) C  25 - H  28          0.01354     0.45813   
 240. BD*(   1) C  25 - H  29          0.01354     0.45818   
       -------------------------------
              Total Lewis  100.13685  ( 98.1734%)
        Valence non-Lewis    1.69862  (  1.6653%)
        Rydberg non-Lewis    0.16453  (  0.1613%)
       -------------------------------
            Total unit  1  102.00000  (100.0000%)
           Charge unit  1    0.00000
 1|1|UNPC-UNK|SP|RB3LYP|6-31G(d)|C12H15N1O1|PCUSER|17-Sep-2021|0||# B3L
 YP/6-31G(D) POP=NBO||3,4-boxmmc||0,1|H|C,1,1.085|C,2,1.4025,1,118.3093
 |H,3,1.0868,2,120.6245,1,0.0336,0|C,3,1.3868,2,116.0709,1,179.9614,0|C
 ,5,1.3981,3,122.1801,2,0.0613,0|C,6,1.3811,5,122.3908,3,359.9446,0|H,7
 ,1.0853,6,124.4885,5,180.0933,0|C,7,1.4142,6,116.6128,5,360.0163,0|C,9
 ,1.4977,7,117.2413,6,180.2516,0|C,10,1.549,9,121.2318,7,183.8571,0|C,1
 1,1.5407,10,108.6361,9,82.1719,0|H,12,1.0952,11,111.9529,10,300.9775,0
 |H,12,1.0936,11,109.3632,10,179.7782,0|H,12,1.0962,11,110.0188,10,60.9
 903,0|N,11,1.4581,10,112.3108,9,203.6184,0|H,11,1.0962,10,109.9257,9,3
 23.0532,0|C,16,1.4636,11,113.6385,10,72.8124,0|H,16,1.0203,11,106.723,
 10,313.7897,0|H,18,1.0967,16,109.32,11,65.1546,0|H,18,1.1032,16,114.67
 04,11,303.5242,0|H,18,1.0949,16,108.9122,11,182.401,0|O,10,1.2252,9,12
 0.43,7,361.5336,0|C,5,1.5216,3,144.3421,2,180.0672,0|C,6,1.5234,5,93.4
 3,3,179.971,0|H,24,1.0957,5,115.5725,3,64.1249,0|H,24,1.0957,5,115.588
 3,3,295.9593,0|H,25,1.0954,6,115.6642,5,244.2791,0|H,25,1.0954,6,115.6
 791,5,115.8052,0||Version=IA32W-G03RevC.01|State=1-A|HF=-596.2431466|R
 MSD=4.212e-006|Dipole=1.2521357,0.0204257,0.3310909|PG=C01 [X(C12H15N1
 O1)]||@


 BOOKS ARE LIGHTHOUSES ERECTED IN THE GREAT SEA OF TIME.
     -- E.P.WHIPPLE
 Job cpu time:  0 days  0 hours  2 minutes 30.0 seconds.
 File lengths (MBytes):  RWF=     42 Int=      0 D2E=      0 Chk=      9 Scr=      1
 Normal termination of Gaussian 03 at Fri Sep 17 14:37:32 2021.
