 Entering Link 1 = C:\G03W\l1.exe PID=     20216.
  
 Copyright (c) 1988,1990,1992,1993,1995,1998,2003,2004, Gaussian, Inc.
                  All Rights Reserved.
  
 This is the Gaussian(R) 03 program.  It is based on the
 the Gaussian(R) 98 system (copyright 1998, Gaussian, Inc.),
 the Gaussian(R) 94 system (copyright 1995, Gaussian, Inc.),
 the Gaussian 92(TM) system (copyright 1992, Gaussian, Inc.),
 the Gaussian 90(TM) system (copyright 1990, Gaussian, Inc.),
 the Gaussian 88(TM) system (copyright 1988, Gaussian, Inc.),
 the Gaussian 86(TM) system (copyright 1986, Carnegie Mellon
 University), and the Gaussian 82(TM) system (copyright 1983,
 Carnegie Mellon University). Gaussian is a federally registered
 trademark of Gaussian, Inc.
  
 This software contains proprietary and confidential information,
 including trade secrets, belonging to Gaussian, Inc.
  
 This software is provided under written license and may be
 used, copied, transmitted, or stored only in accord with that
 written license.
  
 The following legend is applicable only to US Government
 contracts under FAR:
  
                    RESTRICTED RIGHTS LEGEND
  
 Use, reproduction and disclosure by the US Government is
 subject to restrictions as set forth in subparagraphs (a)
 and (c) of the Commercial Computer Software - Restricted
 Rights clause in FAR 52.227-19.
  
 Gaussian, Inc.
 340 Quinnipiac St., Bldg. 40, Wallingford CT 06492
  
  
 ---------------------------------------------------------------
 Warning -- This program may not be used in any manner that
 competes with the business of Gaussian, Inc. or will provide
 assistance to any competitor of Gaussian, Inc.  The licensee
 of this program is prohibited from giving any competitor of
 Gaussian, Inc. access to this program.  By using this program,
 the user acknowledges that Gaussian, Inc. is engaged in the
 business of creating and licensing software in the field of
 computational chemistry and represents and warrants to the
 licensee that it is not a competitor of Gaussian, Inc. and that
 it will not use this program in any manner prohibited above.
 ---------------------------------------------------------------
  

 Cite this work as:
 Gaussian 03, Revision C.01,
 M. J. Frisch, G. W. Trucks, H. B. Schlegel, G. E. Scuseria, 
 M. A. Robb, J. R. Cheeseman, J. A. Montgomery, Jr., T. Vreven, 
 K. N. Kudin, J. C. Burant, J. M. Millam, S. S. Iyengar, J. Tomasi, 
 V. Barone, B. Mennucci, M. Cossi, G. Scalmani, N. Rega, 
 G. A. Petersson, H. Nakatsuji, M. Hada, M. Ehara, K. Toyota, 
 R. Fukuda, J. Hasegawa, M. Ishida, T. Nakajima, Y. Honda, O. Kitao, 
 H. Nakai, M. Klene, X. Li, J. E. Knox, H. P. Hratchian, J. B. Cross, 
 C. Adamo, J. Jaramillo, R. Gomperts, R. E. Stratmann, O. Yazyev, 
 A. J. Austin, R. Cammi, C. Pomelli, J. W. Ochterski, P. Y. Ayala, 
 K. Morokuma, G. A. Voth, P. Salvador, J. J. Dannenberg, 
 V. G. Zakrzewski, S. Dapprich, A. D. Daniels, M. C. Strain, 
 O. Farkas, D. K. Malick, A. D. Rabuck, K. Raghavachari, 
 J. B. Foresman, J. V. Ortiz, Q. Cui, A. G. Baboul, S. Clifford, 
 J. Cioslowski, B. B. Stefanov, G. Liu, A. Liashenko, P. Piskorz, 
 I. Komaromi, R. L. Martin, D. J. Fox, T. Keith, M. A. Al-Laham, 
 C. Y. Peng, A. Nanayakkara, M. Challacombe, P. M. W. Gill, 
 B. Johnson, W. Chen, M. W. Wong, C. Gonzalez, and J. A. Pople, 
 Gaussian, Inc., Wallingford CT, 2004.
 
 ******************************************
 Gaussian 03:  IA32W-G03RevC.01  3-Apr-2004
                17-Sep-2021 
 ******************************************
 Default route:  MaxDisk=2000MB
 ------------------------
 # B3LYP/6-31G(d) POP=NBO
 ------------------------
 1/38=1/1;
 2/17=6,18=5,40=1/2;
 3/5=1,6=6,7=1,11=2,16=1,25=1,30=1,74=-5/1,2,3;
 4//1;
 5/5=2,32=1,38=5/2;
 6/7=2,8=2,9=2,10=2,28=1/1,7;
 99/5=1,9=1/99;
 ----
 3mmc
 ----
 Symbolic Z-matrix:
 Charge =  0 Multiplicity = 1
 H
 C                    1    B1
 C                    2    B2       1    A2
 H                    3    B3       2    A3       1    D3       0
 C                    3    B4       2    A4       1    D4       0
 H                    5    B5       3    A5       2    D5       0
 C                    5    B6       3    A6       2    D6       0
 C                    7    B7       5    A7       3    D7       0
 H                    8    B8       7    A8       5    D8       0
 C                    2    B9       1    A9       3    D9       0
 C                    10   B10      2    A10      1    D10      0
 C                    11   B11      10   A11      2    D11      0
 C                    12   B12      11   A12      10   D12      0
 H                    13   B13      12   A13      11   D13      0
 H                    13   B14      12   A14      11   D14      0
 H                    13   B15      12   A15      11   D15      0
 N                    12   B16      11   A16      10   D16      0
 H                    12   B17      11   A17      10   D17      0
 C                    17   B18      12   A18      11   D18      0
 H                    17   B19      12   A19      11   D19      0
 H                    19   B20      17   A20      12   D20      0
 H                    19   B21      17   A21      12   D21      0
 H                    19   B22      17   A22      12   D22      0
 O                    11   B23      10   A23      2    D23      0
 C                    7    B24      5    A24      3    D24      0
 H                    25   B25      7    A25      5    D25      0
 H                    25   B26      7    A26      5    D26      0
 H                    25   B27      7    A27      5    D27      0
       Variables:
  B1                    1.0849                   
  B2                    1.3953                   
  A2                  119.2121                   
  B3                    1.0866                   
  A3                  119.855                    
  D3                   -0.0543                   
  B4                    1.3933                   
  A4                  120.2468                   
  D4                  179.9185                   
  B5                    1.0881                   
  A5                  119.5796                   
  D5                  180.0142                   
  B6                    1.4047                   
  A6                  120.9978                   
  D6                   59.9935                   
  B7                    1.3944                   
  A7                  118.1085                   
  D7                    0.0644                   
  B8                    1.0859                   
  A8                  120.5446                   
  D8                  179.9743                   
  B9                    1.4021                   
  A9                  120.9163                   
  D9                  179.9596                   
  B10                   1.4985                   
  A10                 123.1513                   
  D10                 359.8496                   
  B11                   1.5475                   
  A11                 120.8779                   
  D11                   3.9256                   
  B12                   1.5409                   
  A12                 108.6359                   
  D12                  82.0681                   
  B13                   1.0952                   
  A13                 111.9761                   
  D13                 301.2003                   
  B14                   1.0935                   
  A14                 109.3203                   
  D14                 180.0309                   
  B15                   1.0962                   
  A15                 110.0469                   
  D15                  61.2529                   
  B16                   1.4578                   
  A16                 112.377                    
  D16                 203.5941                   
  B17                   1.0963                   
  A17                 109.7908                   
  D17                 323.0628                   
  B18                   1.4636                   
  A18                 113.6746                   
  D18                  72.7037                   
  B19                   1.0203                   
  A19                 106.8192                   
  D19                 313.5708                   
  B20                   1.0967                   
  A20                 109.3155                   
  D20                  65.2079                   
  B21                   1.1032                   
  A21                 114.6732                   
  D21                 303.571                    
  B22                   1.0949                   
  A22                 108.9035                   
  D22                 182.4495                   
  B23                   1.2245                   
  A23                 120.58                     
  D23                 181.6693                   
  B24                   1.5113                   
  A24                 120.6305                   
  D24                 180.2678                   
  B25                   1.0973                   
  A25                 111.3047                   
  D25                  63.021                    
  B26                   1.0969                   
  A26                 111.3788                   
  D26                 303.6458                   
  B27                   1.094                    
  A27                 111.305                    
  D27                 183.2249                   
 
                          Input orientation:                          
 ---------------------------------------------------------------------
 Center     Atomic     Atomic              Coordinates (Angstroms)
 Number     Number      Type              X           Y           Z
 ---------------------------------------------------------------------
    1          1             0        0.000000    0.000000    0.000000
    2          6             0        0.000000    0.000000    1.084900
    3          6             0        1.217844    0.000000    1.765868
    4          1             0        2.149897   -0.000893    1.207319
    5          6             0        1.243005    0.001712    3.158940
    6          1             0        2.198839    0.001929    3.678885
    7          6             0        0.653280   -1.039671    3.894417
    8          6             0        0.042526   -2.077000    3.190656
    9          1             0       -0.425154   -2.902172    3.719376
   10          6             0       -1.202888    0.000848    1.805278
   11          6             0       -2.550500    0.005092    1.149972
   12          6             0       -2.685451   -0.082093   -0.389165
   13          6             0       -2.574032   -1.560138   -0.810285
   14          1             0       -1.622620   -2.004391   -0.498971
   15          1             0       -2.667453   -1.634657   -1.897235
   16          1             0       -3.383550   -2.142570   -0.355193
   17          7             0       -3.946586    0.470660   -0.867898
   18          1             0       -1.877047    0.484985   -0.865377
   19          6             0       -4.011802    1.931198   -0.799344
   20          1             0       -4.680994    0.092192   -0.269218
   21          1             0       -3.272079    2.359981   -1.486154
   22          1             0       -3.834600    2.353489    0.204309
   23          1             0       -5.001646    2.258178   -1.134155
   24          8             0       -3.571480    0.036377    1.825265
   25          6             0        0.680157   -1.026391    5.405420
   26          1             0        0.128755   -0.166615    5.806429
   27          1             0        1.706349   -0.956333    5.786485
   28          1             0        0.229710   -1.933535    5.818969
 ---------------------------------------------------------------------
                    Distance matrix (angstroms):
                    1          2          3          4          5
     1  H    0.000000
     2  C    1.084900   0.000000
     3  C    2.145095   1.395300   0.000000
     4  H    2.465700   2.153380   1.086600   0.000000
     5  C    3.394696   2.417996   1.393300   2.152041   0.000000
     6  H    4.285918   3.400537   2.149881   2.472052   1.088100
     7  C    4.083402   3.066117   2.435235   3.246447   1.404700
     8  C    3.807364   2.958031   2.779447   3.561581   2.400667
     9  H    4.736784   3.942566   3.865002   4.621552   3.395495
    10  C    2.169325   1.402100   2.421053   3.405690   2.795495
    11  C    2.797769   2.551335   3.818347   4.700750   4.292626
    12  C    2.714744   3.064515   4.459442   5.092735   5.294227
    13  C    3.117087   3.556880   4.842409   5.368191   5.723975
    14  H    2.626680   3.026405   4.149134   4.599708   5.061281
    15  H    3.658813   4.322099   5.584440   5.959388   6.598052
    16  H    4.020594   4.255923   5.501121   6.135736   6.192906
    17  N    4.068207   4.428372   5.816320   6.457243   6.585376
    18  H    2.123062   2.749927   4.091089   4.555044   5.115017
    19  C    4.523608   4.834714   6.136696   6.762116   6.855941
    20  H    4.689636   4.873792   6.240703   6.989271   6.845014
    21  H    4.299380   4.783966   6.025327   6.498180   6.893788
    22  H    4.503867   4.584595   5.788314   6.508714   6.327936
    23  H    5.603761   5.919463   7.224373   7.856874   7.906831
    24  O    4.011033   3.647593   4.789831   5.754772   4.995914
    25  C    5.543884   4.492547   3.819545   4.564628   2.533864
    26  H    5.810246   4.726222   4.188080   5.026360   2.877340
    27  H    6.108159   5.092259   4.161559   4.698761   2.834878
    28  H    6.136100   5.118861   4.598108   5.356261   3.442049
                    6          7          8          9         10
     6  H    0.000000
     7  C    1.876203   0.000000
     8  C    3.034798   1.394400   0.000000
     9  H    3.914177   2.159298   1.085900   0.000000
    10  C    3.883574   2.982036   2.790660   3.563168   0.000000
    11  C    5.380672   4.345999   3.901702   4.423925   1.498500
    12  C    6.357073   5.514812   4.923071   5.471919   2.649614
    13  C    6.735948   5.728931   4.808435   5.190045   3.340342
    14  H    6.006941   5.041057   4.048621   4.475979   3.083298
    15  H    7.579732   6.702575   5.781548   6.179064   4.304467
    16  H    7.213579   5.964190   4.931059   5.092270   3.743950
    17  N    7.658929   6.791134   6.235018   6.694741   3.859336
    18  H    6.123439   5.602033   5.167198   5.882244   2.796655
    19  C    7.896118   7.253995   6.958688   7.526244   4.289558
    20  H    7.932703   6.860864   6.244019   6.556469   4.050815
    21  H    7.884731   7.477741   7.248859   7.930497   4.547591
    22  H    7.348803   6.728410   6.601486   7.183454   3.876072
    23  H    8.950028   8.254728   7.933564   8.433876   5.307200
    24  O    6.060832   4.825751   4.403601   4.703414   2.368944
    25  C    2.518880   1.511300   2.532890   2.753726   4.190715
    26  H    2.973230   2.166366   3.240259   3.485093   4.220251
    27  H    2.367021   2.166984   3.280629   3.550004   5.022933
    28  H    3.493343   2.163863   2.638873   2.403205   4.680159
                   11         12         13         14         15
    11  C    0.000000
    12  C    1.547500   0.000000
    13  C    2.508606   1.540900   0.000000
    14  H    2.760072   2.199295   1.095200   0.000000
    15  H    3.462359   2.164500   1.093500   1.784243   0.000000
    16  H    2.751717   2.175790   1.096200   1.772185   1.774447
    17  N    2.497521   1.457800   2.451807   3.415084   2.669846
    18  H    2.178410   1.096300   2.161331   2.529028   2.486435
    19  C    3.105660   2.445566   3.775808   4.613814   3.965850
    20  H    2.561386   2.006727   2.731709   3.715118   3.112362
    21  H    3.607678   2.740664   4.038737   4.768961   4.060997
    22  H    2.838691   2.757683   4.234963   4.937467   4.656612
    23  H    4.037543   3.375891   4.536269   5.476383   4.602708
    24  O    1.224500   2.388050   3.238809   3.655799   4.179310
    25  C    5.441500   6.767291   7.036307   6.412573   8.056379
    26  H    5.374986   6.805312   7.282023   6.797264   8.325885
    27  H    6.367287   7.628293   7.886927   7.189396   8.867346
    28  H    5.769521   7.104008   7.207455   6.584262   8.247587
                   16         17         18         19         20
    16  H    0.000000
    17  N    2.721919   0.000000
    18  H    3.071463   2.069590   0.000000
    19  C    4.145788   1.463600   2.579355   0.000000
    20  H    2.585520   1.020300   2.893409   2.027510   0.000000
    21  H    4.643755   2.099222   2.418075   1.096700   2.934083
    22  H    4.553135   2.169612   2.909906   1.103200   2.460504
    23  H    4.753062   2.092670   3.602718   1.094900   2.354237
    24  O    3.088289   2.753622   3.211216   3.266926   2.370864
    25  C    7.137522   7.937406   6.938764   8.322314   7.886360
    26  H    7.362490   7.846092   6.997201   8.073492   7.753331
    27  H    8.064393   8.847191   7.691904   9.187395   8.863921
    28  H    7.156788   8.242317   7.414051   8.759490   8.079889
                   21         22         23         24         25
    21  H    0.000000
    22  H    1.781610   0.000000
    23  H    1.767956   1.778360   0.000000
    24  O    4.056386   2.840025   3.967359   0.000000
    25  C    8.636056   7.671908   9.264843   5.658922   0.000000
    26  H    8.433926   7.310462   8.965062   5.438990   1.097300
    27  H    9.416685   8.533331  10.159997   6.673247   1.096900
    28  H    9.168513   8.149946   9.658338   5.854851   1.094000
                   26         27         28
    26  H    0.000000
    27  H    1.764329   0.000000
    28  H    1.769847   1.771000   0.000000
 Stoichiometry    C11H15NO
 Framework group  C1[X(C11H15NO)]
 Deg. of freedom    78
 Full point group                 C1      NOp   1
 Largest Abelian subgroup         C1      NOp   1
 Largest concise Abelian subgroup C1      NOp   1
                         Standard orientation:                         
 ---------------------------------------------------------------------
 Center     Atomic     Atomic              Coordinates (Angstroms)
 Number     Number      Type              X           Y           Z
 ---------------------------------------------------------------------
    1          1             0        0.165174    2.046338   -0.090851
    2          6             0       -0.590650    1.297289   -0.302187
    3          6             0       -1.899275    1.705072   -0.563106
    4          1             0       -2.148783    2.762575   -0.551597
    5          6             0       -2.886664    0.761492   -0.838794
    6          1             0       -3.903588    1.091579   -1.040960
    7          6             0       -3.217068   -0.233982    0.095576
    8          6             0       -2.529520   -0.250677    1.308568
    9          1             0       -2.753395   -1.002432    2.059516
   10          6             0       -0.268375   -0.067194   -0.316652
   11          6             0        1.112165   -0.585989   -0.051203
   12          6             0        2.258302    0.374157    0.347852
   13          6             0        2.160323    0.656464    1.859499
   14          1             0        1.197039    1.100715    2.131873
   15          1             0        2.965684    1.335106    2.153744
   16          1             0        2.273637   -0.276307    2.424080
   17          7             0        3.573506   -0.171264    0.034906
   18          1             0        2.157192    1.319787   -0.197525
   19          6             0        3.881730   -0.177892   -1.395856
   20          1             0        3.578812   -1.136778    0.364705
   21          1             0        3.944906    0.855321   -1.758113
   22          1             0        3.151139   -0.717739   -2.021836
   23          1             0        4.862713   -0.640669   -1.545244
   24          8             0        1.347734   -1.786378   -0.105725
   25          6             0       -4.285327   -1.257053   -0.214547
   26          1             0       -4.003736   -1.879791   -1.073017
   27          1             0       -5.238804   -0.776163   -0.465177
   28          1             0       -4.458243   -1.921790    0.636959
 ---------------------------------------------------------------------
 Rotational constants (GHZ):      1.6320543      0.3611185      0.3510382
 Standard basis: 6-31G(d) (6D, 7F)
 There are   225 symmetry adapted basis functions of A   symmetry.
 Integral buffers will be    262144 words long.
 Raffenetti 2 integral format.
 Two-electron integral symmetry is turned on.
   225 basis functions,   424 primitive gaussians,   225 cartesian basis functions
    48 alpha electrons       48 beta electrons
       nuclear repulsion energy       741.3552766644 Hartrees.
 NAtoms=   28 NActive=   28 NUniq=   28 SFac= 1.00D+00 NAtFMM=   60 Big=F
 One-electron integrals computed using PRISM.
 NBasis=   225 RedAO= T  NBF=   225
 NBsUse=   225 1.00D-06 NBFU=   225
 Harris functional with IExCor=  402 diagonalized for initial guess.
 ExpMin= 1.61D-01 ExpMax= 5.48D+03 ExpMxC= 8.25D+02 IAcc=1 IRadAn=         1 AccDes= 1.00D-06
 HarFok:  IExCor= 402 AccDes= 1.00D-06 IRadAn=         1 IDoV=1
 ScaDFX=  1.000000  1.000000  1.000000  1.000000
 Initial guess orbital symmetries:
       Occupied  (A) (A) (A) (A) (A) (A) (A) (A) (A) (A) (A) (A)
                 (A) (A) (A) (A) (A) (A) (A) (A) (A) (A) (A) (A)
                 (A) (A) (A) (A) (A) (A) (A) (A) (A) (A) (A) (A)
                 (A) (A) (A) (A) (A) (A) (A) (A) (A) (A) (A) (A)
       Virtual   (A) (A) (A) (A) (A) (A) (A) (A) (A) (A) (A) (A)
                 (A) (A) (A) (A) (A) (A) (A) (A) (A) (A) (A) (A)
                 (A) (A) (A) (A) (A) (A) (A) (A) (A) (A) (A) (A)
                 (A) (A) (A) (A) (A) (A) (A) (A) (A) (A) (A) (A)
                 (A) (A) (A) (A) (A) (A) (A) (A) (A) (A) (A) (A)
                 (A) (A) (A) (A) (A) (A) (A) (A) (A) (A) (A) (A)
                 (A) (A) (A) (A) (A) (A) (A) (A) (A) (A) (A) (A)
                 (A) (A) (A) (A) (A) (A) (A) (A) (A) (A) (A) (A)
                 (A) (A) (A) (A) (A) (A) (A) (A) (A) (A) (A) (A)
                 (A) (A) (A) (A) (A) (A) (A) (A) (A) (A) (A) (A)
                 (A) (A) (A) (A) (A) (A) (A) (A) (A) (A) (A) (A)
                 (A) (A) (A) (A) (A) (A) (A) (A) (A) (A) (A) (A)
                 (A) (A) (A) (A) (A) (A) (A) (A) (A) (A) (A) (A)
                 (A) (A) (A) (A) (A) (A) (A) (A) (A) (A) (A) (A)
                 (A) (A) (A) (A) (A) (A) (A) (A) (A)
 The electronic state of the initial guess is 1-A.
 Warning!  Cutoffs for single-point calculations used.
 Requested convergence on RMS density matrix=1.00D-04 within 128 cycles.
 Requested convergence on MAX density matrix=1.00D-02.
 Requested convergence on             energy=5.00D-05.
 No special actions if energy rises.
 EnCoef did     1 forward-backward iterations
 EnCoef did     3 forward-backward iterations
 EnCoef did     3 forward-backward iterations
 SCF Done:  E(RB+HF-LYP) =  -557.841424808     A.U. after   12 cycles
             Convg  =    0.2150D-04             -V/T =  2.0095
             S**2   =   0.0000

 **********************************************************************

            Population analysis using the SCF density.

 **********************************************************************

 Orbital symmetries:
       Occupied  (A) (A) (A) (A) (A) (A) (A) (A) (A) (A) (A) (A)
                 (A) (A) (A) (A) (A) (A) (A) (A) (A) (A) (A) (A)
                 (A) (A) (A) (A) (A) (A) (A) (A) (A) (A) (A) (A)
                 (A) (A) (A) (A) (A) (A) (A) (A) (A) (A) (A) (A)
       Virtual   (A) (A) (A) (A) (A) (A) (A) (A) (A) (A) (A) (A)
                 (A) (A) (A) (A) (A) (A) (A) (A) (A) (A) (A) (A)
                 (A) (A) (A) (A) (A) (A) (A) (A) (A) (A) (A) (A)
                 (A) (A) (A) (A) (A) (A) (A) (A) (A) (A) (A) (A)
                 (A) (A) (A) (A) (A) (A) (A) (A) (A) (A) (A) (A)
                 (A) (A) (A) (A) (A) (A) (A) (A) (A) (A) (A) (A)
                 (A) (A) (A) (A) (A) (A) (A) (A) (A) (A) (A) (A)
                 (A) (A) (A) (A) (A) (A) (A) (A) (A) (A) (A) (A)
                 (A) (A) (A) (A) (A) (A) (A) (A) (A) (A) (A) (A)
                 (A) (A) (A) (A) (A) (A) (A) (A) (A) (A) (A) (A)
                 (A) (A) (A) (A) (A) (A) (A) (A) (A) (A) (A) (A)
                 (A) (A) (A) (A) (A) (A) (A) (A) (A) (A) (A) (A)
                 (A) (A) (A) (A) (A) (A) (A) (A) (A) (A) (A) (A)
                 (A) (A) (A) (A) (A) (A) (A) (A) (A) (A) (A) (A)
                 (A) (A) (A) (A) (A) (A) (A) (A) (A)
 The electronic state is 1-A.
 Alpha  occ. eigenvalues --  -19.13903 -14.32147 -10.27361 -10.22573 -10.22081
 Alpha  occ. eigenvalues --  -10.21867 -10.21813 -10.21417 -10.20565 -10.20508
 Alpha  occ. eigenvalues --  -10.19997 -10.19518 -10.18328  -1.03529  -0.90425
 Alpha  occ. eigenvalues --   -0.85318  -0.79980  -0.76384  -0.72634  -0.68158
 Alpha  occ. eigenvalues --   -0.66238  -0.66018  -0.61785  -0.57824  -0.53182
 Alpha  occ. eigenvalues --   -0.51311  -0.49731  -0.46312  -0.45820  -0.44436
 Alpha  occ. eigenvalues --   -0.44010  -0.43059  -0.42775  -0.42522  -0.40782
 Alpha  occ. eigenvalues --   -0.39473  -0.39024  -0.38023  -0.37197  -0.35943
 Alpha  occ. eigenvalues --   -0.35422  -0.34695  -0.32631  -0.28438  -0.25502
 Alpha  occ. eigenvalues --   -0.23614  -0.19910  -0.19609
 Alpha virt. eigenvalues --   -0.12899  -0.10466  -0.00975   0.04832   0.08374
 Alpha virt. eigenvalues --    0.08654   0.10039   0.11093   0.12290   0.12867
 Alpha virt. eigenvalues --    0.13926   0.15659   0.16271   0.16777   0.17296
 Alpha virt. eigenvalues --    0.17743   0.18030   0.18213   0.19022   0.20696
 Alpha virt. eigenvalues --    0.22678   0.23946   0.24328   0.25417   0.26812
 Alpha virt. eigenvalues --    0.27950   0.31895   0.34868   0.36033   0.38682
 Alpha virt. eigenvalues --    0.39615   0.43239   0.49980   0.50452   0.51014
 Alpha virt. eigenvalues --    0.51310   0.52331   0.53386   0.54285   0.54696
 Alpha virt. eigenvalues --    0.56449   0.57300   0.58940   0.59105   0.59968
 Alpha virt. eigenvalues --    0.60879   0.61792   0.63195   0.64258   0.65458
 Alpha virt. eigenvalues --    0.67654   0.68867   0.69185   0.70947   0.71985
 Alpha virt. eigenvalues --    0.73328   0.74431   0.75337   0.77803   0.79190
 Alpha virt. eigenvalues --    0.79981   0.82287   0.82894   0.84876   0.85025
 Alpha virt. eigenvalues --    0.86560   0.86748   0.87333   0.89257   0.89861
 Alpha virt. eigenvalues --    0.90633   0.90753   0.91879   0.92166   0.94986
 Alpha virt. eigenvalues --    0.95532   0.95942   0.96674   0.98121   0.98705
 Alpha virt. eigenvalues --    0.99741   1.00795   1.02145   1.05765   1.07268
 Alpha virt. eigenvalues --    1.08860   1.11278   1.13144   1.15410   1.16709
 Alpha virt. eigenvalues --    1.20024   1.22075   1.25792   1.32829   1.35282
 Alpha virt. eigenvalues --    1.38289   1.39712   1.40596   1.42524   1.47372
 Alpha virt. eigenvalues --    1.48468   1.52262   1.53461   1.54759   1.63863
 Alpha virt. eigenvalues --    1.67255   1.67790   1.69586   1.73791   1.74158
 Alpha virt. eigenvalues --    1.77476   1.78396   1.82136   1.82945   1.84554
 Alpha virt. eigenvalues --    1.86079   1.87739   1.88912   1.90197   1.91534
 Alpha virt. eigenvalues --    1.94283   1.95336   1.97579   1.99268   2.01833
 Alpha virt. eigenvalues --    2.04105   2.05488   2.06019   2.08743   2.09135
 Alpha virt. eigenvalues --    2.13533   2.16341   2.17408   2.19696   2.20187
 Alpha virt. eigenvalues --    2.21689   2.24309   2.25863   2.29019   2.29679
 Alpha virt. eigenvalues --    2.30976   2.35510   2.35901   2.38506   2.40277
 Alpha virt. eigenvalues --    2.42471   2.44699   2.45654   2.50550   2.52014
 Alpha virt. eigenvalues --    2.53545   2.57905   2.61234   2.63220   2.68128
 Alpha virt. eigenvalues --    2.73296   2.76263   2.85144   2.86041   2.90849
 Alpha virt. eigenvalues --    2.96765   2.99390   3.06749   3.14022   3.91780
 Alpha virt. eigenvalues --    4.03352   4.06483   4.14227   4.17227   4.19281
 Alpha virt. eigenvalues --    4.23814   4.27192   4.27711   4.39236   4.46553
 Alpha virt. eigenvalues --    4.53483   4.64418
          Condensed to atoms (all electrons):
              1          2          3          4          5          6
     1  H    0.608870   0.349474  -0.061096  -0.006238   0.005036  -0.000028
     2  C    0.349474   5.012929   0.425355  -0.043549  -0.032173   0.006513
     3  C   -0.061096   0.425355   4.965020   0.365705   0.564729  -0.045871
     4  H   -0.006238  -0.043549   0.365705   0.570218  -0.044799  -0.006650
     5  C    0.005036  -0.032173   0.564729  -0.044799   5.056111   0.348604
     6  H   -0.000028   0.006513  -0.045871  -0.006650   0.348604   0.638785
     7  C    0.000423  -0.021808  -0.033448   0.004741   0.387465  -0.081258
     8  C    0.002972  -0.000946  -0.038923   0.000928  -0.082709   0.006712
     9  H   -0.000039   0.000095   0.001182  -0.000011   0.010358  -0.000279
    10  C   -0.048425   0.442645  -0.053736   0.003767  -0.035967   0.001686
    11  C   -0.011646  -0.024191   0.005224  -0.000086   0.000255  -0.000007
    12  C    0.001793   0.008030   0.000142   0.000008  -0.000019   0.000000
    13  C    0.000993  -0.003672  -0.000048  -0.000004   0.000010   0.000000
    14  H    0.001348   0.001958  -0.000104   0.000002  -0.000025   0.000000
    15  H    0.000021   0.000071   0.000000   0.000000   0.000000   0.000000
    16  H   -0.000042  -0.000069   0.000004   0.000000   0.000000   0.000000
    17  N   -0.000161  -0.000064   0.000000   0.000000   0.000000   0.000000
    18  H    0.006986  -0.002234   0.000021  -0.000006   0.000007   0.000000
    19  C   -0.000013   0.000031   0.000000   0.000000   0.000000   0.000000
    20  H    0.000001  -0.000054   0.000001   0.000000   0.000000   0.000000
    21  H   -0.000010  -0.000028   0.000000   0.000000   0.000000   0.000000
    22  H   -0.000008   0.000036   0.000000   0.000000   0.000000   0.000000
    23  H    0.000000   0.000000   0.000000   0.000000   0.000000   0.000000
    24  O   -0.000063   0.005085  -0.000062   0.000000   0.000003   0.000000
    25  C    0.000017   0.000681   0.004921  -0.000147  -0.076919  -0.010900
    26  H   -0.000001   0.000016   0.000119  -0.000006  -0.003092   0.000270
    27  H    0.000000  -0.000016  -0.000129   0.000005  -0.000781   0.007661
    28  H    0.000000  -0.000015  -0.000163   0.000005   0.004116  -0.000297
              7          8          9         10         11         12
     1  H    0.000423   0.002972  -0.000039  -0.048425  -0.011646   0.001793
     2  C   -0.021808  -0.000946   0.000095   0.442645  -0.024191   0.008030
     3  C   -0.033448  -0.038923   0.001182  -0.053736   0.005224   0.000142
     4  H    0.004741   0.000928  -0.000011   0.003767  -0.000086   0.000008
     5  C    0.387465  -0.082709   0.010358  -0.035967   0.000255  -0.000019
     6  H   -0.081258   0.006712  -0.000279   0.001686  -0.000007   0.000000
     7  C    4.795430   0.629243  -0.057495   0.021804   0.000129   0.000012
     8  C    0.629243   5.398433   0.304237   0.090253  -0.002236   0.000330
     9  H   -0.057495   0.304237   0.616138  -0.005147   0.000041  -0.000006
    10  C    0.021804   0.090253  -0.005147   5.487728   0.319146  -0.090215
    11  C    0.000129  -0.002236   0.000041   0.319146   4.703760   0.281474
    12  C    0.000012   0.000330  -0.000006  -0.090215   0.281474   5.079841
    13  C   -0.000004  -0.000214   0.000008   0.001337  -0.045791   0.361492
    14  H    0.000019   0.000850  -0.000037   0.002115   0.001539  -0.030154
    15  H    0.000000   0.000006   0.000000  -0.000223   0.004541  -0.027291
    16  H    0.000000  -0.000013   0.000001   0.000301  -0.005067  -0.032347
    17  N    0.000000  -0.000002   0.000000   0.004495  -0.051332   0.333274
    18  H   -0.000001  -0.000005   0.000000  -0.000192  -0.044223   0.362551
    19  C    0.000000   0.000000   0.000000   0.000007   0.000602  -0.056218
    20  H    0.000000  -0.000001   0.000000   0.000711  -0.008988  -0.046073
    21  H    0.000000   0.000000   0.000000   0.000030  -0.001023  -0.005894
    22  H    0.000000   0.000000   0.000000  -0.000524   0.008882  -0.006705
    23  H    0.000000   0.000000   0.000000   0.000005  -0.000181   0.005189
    24  O   -0.000003  -0.000027   0.000012  -0.072919   0.495350  -0.082573
    25  C    0.367523  -0.072647  -0.010734   0.002383  -0.000027   0.000000
    26  H   -0.027241  -0.000308  -0.000213  -0.000542   0.000000   0.000000
    27  H   -0.036338   0.004938   0.000562   0.000001   0.000000   0.000000
    28  H   -0.024430  -0.004306   0.005413  -0.000022   0.000001   0.000000
             13         14         15         16         17         18
     1  H    0.000993   0.001348   0.000021  -0.000042  -0.000161   0.006986
     2  C   -0.003672   0.001958   0.000071  -0.000069  -0.000064  -0.002234
     3  C   -0.000048  -0.000104   0.000000   0.000004   0.000000   0.000021
     4  H   -0.000004   0.000002   0.000000   0.000000   0.000000  -0.000006
     5  C    0.000010  -0.000025   0.000000   0.000000   0.000000   0.000007
     6  H    0.000000   0.000000   0.000000   0.000000   0.000000   0.000000
     7  C   -0.000004   0.000019   0.000000   0.000000   0.000000  -0.000001
     8  C   -0.000214   0.000850   0.000006  -0.000013  -0.000002  -0.000005
     9  H    0.000008  -0.000037   0.000000   0.000001   0.000000   0.000000
    10  C    0.001337   0.002115  -0.000223   0.000301   0.004495  -0.000192
    11  C   -0.045791   0.001539   0.004541  -0.005067  -0.051332  -0.044223
    12  C    0.361492  -0.030154  -0.027291  -0.032347   0.333274   0.362551
    13  C    5.130071   0.358292   0.367603   0.371622  -0.056373  -0.037408
    14  H    0.358292   0.559267  -0.024692  -0.028006   0.004215  -0.003498
    15  H    0.367603  -0.024692   0.542125  -0.027632   0.002395  -0.004807
    16  H    0.371622  -0.028006  -0.027632   0.553691  -0.004133   0.005634
    17  N   -0.056373   0.004215   0.002395  -0.004133   6.849766  -0.049762
    18  H   -0.037408  -0.003498  -0.004807   0.005634  -0.049762   0.620086
    19  C    0.005668  -0.000170  -0.000033  -0.000055   0.317103  -0.004607
    20  H   -0.002258  -0.000221  -0.000617   0.004812   0.298113   0.008022
    21  H    0.000154  -0.000010  -0.000039   0.000007  -0.042192   0.007380
    22  H   -0.000057   0.000020   0.000019  -0.000004  -0.044806  -0.001196
    23  H   -0.000211   0.000002  -0.000013   0.000007  -0.033670   0.000036
    24  O   -0.003987  -0.000043  -0.000011   0.002598  -0.011970   0.002744
    25  C    0.000000   0.000000   0.000000   0.000000   0.000000   0.000000
    26  H    0.000000   0.000000   0.000000   0.000000   0.000000   0.000000
    27  H    0.000000   0.000000   0.000000   0.000000   0.000000   0.000000
    28  H    0.000000   0.000000   0.000000   0.000000   0.000000   0.000000
             19         20         21         22         23         24
     1  H   -0.000013   0.000001  -0.000010  -0.000008   0.000000  -0.000063
     2  C    0.000031  -0.000054  -0.000028   0.000036   0.000000   0.005085
     3  C    0.000000   0.000001   0.000000   0.000000   0.000000  -0.000062
     4  H    0.000000   0.000000   0.000000   0.000000   0.000000   0.000000
     5  C    0.000000   0.000000   0.000000   0.000000   0.000000   0.000003
     6  H    0.000000   0.000000   0.000000   0.000000   0.000000   0.000000
     7  C    0.000000   0.000000   0.000000   0.000000   0.000000  -0.000003
     8  C    0.000000  -0.000001   0.000000   0.000000   0.000000  -0.000027
     9  H    0.000000   0.000000   0.000000   0.000000   0.000000   0.000012
    10  C    0.000007   0.000711   0.000030  -0.000524   0.000005  -0.072919
    11  C    0.000602  -0.008988  -0.001023   0.008882  -0.000181   0.495350
    12  C   -0.056218  -0.046073  -0.005894  -0.006705   0.005189  -0.082573
    13  C    0.005668  -0.002258   0.000154  -0.000057  -0.000211  -0.003987
    14  H   -0.000170  -0.000221  -0.000010   0.000020   0.000002  -0.000043
    15  H   -0.000033  -0.000617  -0.000039   0.000019  -0.000013  -0.000011
    16  H   -0.000055   0.004812   0.000007  -0.000004   0.000007   0.002598
    17  N    0.317103   0.298113  -0.042192  -0.044806  -0.033670  -0.011970
    18  H   -0.004607   0.008022   0.007380  -0.001196   0.000036   0.002744
    19  C    4.965746  -0.037809   0.379806   0.361212   0.382161  -0.000971
    20  H   -0.037809   0.451711   0.005830  -0.003371  -0.003272   0.021925
    21  H    0.379806   0.005830   0.578725  -0.043854  -0.026483   0.000096
    22  H    0.361212  -0.003371  -0.043854   0.619193  -0.036783   0.003525
    23  H    0.382161  -0.003272  -0.026483  -0.036783   0.559207  -0.000014
    24  O   -0.000971   0.021925   0.000096   0.003525  -0.000014   8.091531
    25  C    0.000000   0.000000   0.000000   0.000000   0.000000   0.000001
    26  H    0.000000   0.000000   0.000000   0.000000   0.000000  -0.000001
    27  H    0.000000   0.000000   0.000000   0.000000   0.000000   0.000000
    28  H    0.000000   0.000000   0.000000   0.000000   0.000000   0.000000
             25         26         27         28
     1  H    0.000017  -0.000001   0.000000   0.000000
     2  C    0.000681   0.000016  -0.000016  -0.000015
     3  C    0.004921   0.000119  -0.000129  -0.000163
     4  H   -0.000147  -0.000006   0.000005   0.000005
     5  C   -0.076919  -0.003092  -0.000781   0.004116
     6  H   -0.010900   0.000270   0.007661  -0.000297
     7  C    0.367523  -0.027241  -0.036338  -0.024430
     8  C   -0.072647  -0.000308   0.004938  -0.004306
     9  H   -0.010734  -0.000213   0.000562   0.005413
    10  C    0.002383  -0.000542   0.000001  -0.000022
    11  C   -0.000027   0.000000   0.000000   0.000001
    12  C    0.000000   0.000000   0.000000   0.000000
    13  C    0.000000   0.000000   0.000000   0.000000
    14  H    0.000000   0.000000   0.000000   0.000000
    15  H    0.000000   0.000000   0.000000   0.000000
    16  H    0.000000   0.000000   0.000000   0.000000
    17  N    0.000000   0.000000   0.000000   0.000000
    18  H    0.000000   0.000000   0.000000   0.000000
    19  C    0.000000   0.000000   0.000000   0.000000
    20  H    0.000000   0.000000   0.000000   0.000000
    21  H    0.000000   0.000000   0.000000   0.000000
    22  H    0.000000   0.000000   0.000000   0.000000
    23  H    0.000000   0.000000   0.000000   0.000000
    24  O    0.000001  -0.000001   0.000000   0.000000
    25  C    5.204544   0.376926   0.343984   0.366291
    26  H    0.376926   0.521969  -0.031557  -0.026613
    27  H    0.343984  -0.031557   0.588922  -0.028070
    28  H    0.366291  -0.026613  -0.028070   0.544190
 Mulliken atomic charges:
              1
     1  H    0.149834
     2  C   -0.124099
     3  C   -0.098843
     4  H    0.156116
     5  C   -0.100211
     6  H    0.135059
     7  C    0.075238
     8  C   -0.236569
     9  H    0.135916
    10  C   -0.070500
    11  C    0.373855
    12  C   -0.056643
    13  C   -0.447223
    14  H    0.157334
    15  H    0.168577
    16  H    0.158690
    17  N   -0.514895
    18  H    0.134473
    19  C   -0.312459
    20  H    0.311537
    21  H    0.147505
    22  H    0.144423
    23  H    0.154020
    24  O   -0.450226
    25  C   -0.495898
    26  H    0.190275
    27  H    0.150816
    28  H    0.163899
 Sum of Mulliken charges=   0.00000
 Atomic charges with hydrogens summed into heavy atoms:
              1
     1  H    0.000000
     2  C    0.025735
     3  C    0.057273
     4  H    0.000000
     5  C    0.034847
     6  H    0.000000
     7  C    0.075238
     8  C   -0.100653
     9  H    0.000000
    10  C   -0.070500
    11  C    0.373855
    12  C    0.077831
    13  C    0.037377
    14  H    0.000000
    15  H    0.000000
    16  H    0.000000
    17  N   -0.203358
    18  H    0.000000
    19  C    0.133490
    20  H    0.000000
    21  H    0.000000
    22  H    0.000000
    23  H    0.000000
    24  O   -0.450226
    25  C    0.009093
    26  H    0.000000
    27  H    0.000000
    28  H    0.000000
 Sum of Mulliken charges=   0.00000
 Electronic spatial extent (au):  <R**2>=  3395.2391
 Charge=     0.0000 electrons
 Dipole moment (field-independent basis, Debye):
    X=    -1.9362    Y=     2.1956    Z=    -0.3724  Tot=     2.9509
 Quadrupole moment (field-independent basis, Debye-Ang):
   XX=   -70.0434   YY=   -77.4543   ZZ=   -78.9620
   XY=     1.9310   XZ=    -0.1572   YZ=    -2.4120
 Traceless Quadrupole moment (field-independent basis, Debye-Ang):
   XX=     5.4432   YY=    -1.9678   ZZ=    -3.4755
   XY=     1.9310   XZ=    -0.1572   YZ=    -2.4120
 Octapole moment (field-independent basis, Debye-Ang**2):
  XXX=   -38.1223  YYY=    11.5994  ZZZ=     1.7508  XYY=    -4.1461
  XXY=   -20.5049  XXZ=   -16.3649  XZZ=    13.4001  YZZ=    -9.1153
  YYZ=     0.8334  XYZ=     2.9242
 Hexadecapole moment (field-independent basis, Debye-Ang**3):
 XXXX= -3447.7949 YYYY=  -535.2378 ZZZZ=  -498.3130 XXXY=   -37.0543
 XXXZ=   -32.9082 YYYX=    -7.0115 YYYZ=    -3.6601 ZZZX=    -0.9005
 ZZZY=    -2.5704 XXYY=  -645.1029 XXZZ=  -659.7483 YYZZ=  -169.5853
 XXYZ=   -14.9237 YYXZ=     6.1652 ZZXY=    11.6175
 N-N= 7.413552766644D+02 E-N=-2.777626893017D+03  KE= 5.525783618288D+02
 ******************************Gaussian NBO Version 3.1******************************
             N A T U R A L   A T O M I C   O R B I T A L   A N D
          N A T U R A L   B O N D   O R B I T A L   A N A L Y S I S
 ******************************Gaussian NBO Version 3.1******************************
       /RESON  / : Allow strongly delocalized NBO set

 Analyzing the SCF density

 Job title: 3mmc                                                            

 Storage needed:    154480 in NPA,    203974 in NBO (   6289097 available)


 NATURAL POPULATIONS:  Natural atomic orbital occupancies 
                                                          
   NAO  Atom  No  lang   Type(AO)    Occupancy      Energy
 ----------------------------------------------------------
     1    H    1  S      Val( 1S)     0.76688       0.07443
     2    H    1  S      Ryd( 2S)     0.00266       0.64584

     3    C    2  S      Cor( 1S)     1.99905     -10.07190
     4    C    2  S      Val( 2S)     0.99442      -0.20931
     5    C    2  S      Ryd( 3S)     0.00178       1.02184
     6    C    2  S      Ryd( 4S)     0.00005       4.14635
     7    C    2  px     Val( 2p)     1.14005      -0.07798
     8    C    2  px     Ryd( 3p)     0.00244       0.88233
     9    C    2  py     Val( 2p)     1.16628      -0.08762
    10    C    2  py     Ryd( 3p)     0.00503       0.90836
    11    C    2  pz     Val( 2p)     0.96579      -0.12263
    12    C    2  pz     Ryd( 3p)     0.00110       0.65046
    13    C    2  dxy    Ryd( 3d)     0.00108       2.34537
    14    C    2  dxz    Ryd( 3d)     0.00045       1.92430
    15    C    2  dyz    Ryd( 3d)     0.00058       1.89087
    16    C    2  dx2y2  Ryd( 3d)     0.00064       2.38388
    17    C    2  dz2    Ryd( 3d)     0.00049       2.18878

    18    C    3  S      Cor( 1S)     1.99906     -10.06661
    19    C    3  S      Val( 2S)     0.97177      -0.19363
    20    C    3  S      Ryd( 3S)     0.00140       1.05903
    21    C    3  S      Ryd( 4S)     0.00006       4.18385
    22    C    3  px     Val( 2p)     1.07022      -0.05528
    23    C    3  px     Ryd( 3p)     0.00296       0.64311
    24    C    3  py     Val( 2p)     1.18804      -0.06740
    25    C    3  py     Ryd( 3p)     0.00551       1.03899
    26    C    3  pz     Val( 2p)     0.91488      -0.11213
    27    C    3  pz     Ryd( 3p)     0.00320       0.63140
    28    C    3  dxy    Ryd( 3d)     0.00062       2.34724
    29    C    3  dxz    Ryd( 3d)     0.00052       2.02414
    30    C    3  dyz    Ryd( 3d)     0.00031       1.86994
    31    C    3  dx2y2  Ryd( 3d)     0.00092       2.32339
    32    C    3  dz2    Ryd( 3d)     0.00045       2.20225

    33    H    4  S      Val( 1S)     0.75690       0.07958
    34    H    4  S      Ryd( 2S)     0.00104       0.55994

    35    C    5  S      Cor( 1S)     1.99870     -10.05571
    36    C    5  S      Val( 2S)     0.97634      -0.18895
    37    C    5  S      Ryd( 3S)     0.00077       1.22293
    38    C    5  S      Ryd( 4S)     0.00006       4.16395
    39    C    5  px     Val( 2p)     1.12709      -0.06532
    40    C    5  px     Ryd( 3p)     0.00362       0.88932
    41    C    5  py     Val( 2p)     1.02826      -0.06349
    42    C    5  py     Ryd( 3p)     0.00378       0.71494
    43    C    5  pz     Val( 2p)     1.03309      -0.10264
    44    C    5  pz     Ryd( 3p)     0.00276       0.59352
    45    C    5  dxy    Ryd( 3d)     0.00068       2.36466
    46    C    5  dxz    Ryd( 3d)     0.00044       1.99177
    47    C    5  dyz    Ryd( 3d)     0.00069       2.26269
    48    C    5  dx2y2  Ryd( 3d)     0.00085       2.14841
    49    C    5  dz2    Ryd( 3d)     0.00075       2.11168

    50    H    6  S      Val( 1S)     0.76821       0.06322
    51    H    6  S      Ryd( 2S)     0.00222       0.66141

    52    C    7  S      Cor( 1S)     1.99904     -10.07476
    53    C    7  S      Val( 2S)     0.93216      -0.18908
    54    C    7  S      Ryd( 3S)     0.00160       0.97297
    55    C    7  S      Ryd( 4S)     0.00006       4.24054
    56    C    7  px     Val( 2p)     1.05374      -0.09999
    57    C    7  px     Ryd( 3p)     0.00346       0.82763
    58    C    7  py     Val( 2p)     1.01984      -0.08462
    59    C    7  py     Ryd( 3p)     0.00239       0.81489
    60    C    7  pz     Val( 2p)     1.09487      -0.09611
    61    C    7  pz     Ryd( 3p)     0.00564       0.78412
    62    C    7  dxy    Ryd( 3d)     0.00076       2.23530
    63    C    7  dxz    Ryd( 3d)     0.00061       2.24728
    64    C    7  dyz    Ryd( 3d)     0.00102       2.26156
    65    C    7  dx2y2  Ryd( 3d)     0.00061       1.99413
    66    C    7  dz2    Ryd( 3d)     0.00075       2.21064

    67    C    8  S      Cor( 1S)     1.99871     -10.08215
    68    C    8  S      Val( 2S)     1.23952      -0.27876
    69    C    8  S      Ryd( 3S)     0.00274       1.01399
    70    C    8  S      Ryd( 4S)     0.00002       4.13980
    71    C    8  px     Val( 2p)     0.66999      -0.07396
    72    C    8  px     Ryd( 3p)     0.00424       0.66693
    73    C    8  py     Val( 2p)     1.19028      -0.07706
    74    C    8  py     Ryd( 3p)     0.00308       0.73674
    75    C    8  pz     Val( 2p)     1.03537      -0.01477
    76    C    8  pz     Ryd( 3p)     0.00335       0.66406
    77    C    8  dxy    Ryd( 3d)     0.00048       1.91528
    78    C    8  dxz    Ryd( 3d)     0.00063       2.15314
    79    C    8  dyz    Ryd( 3d)     0.00121       2.13459
    80    C    8  dx2y2  Ryd( 3d)     0.00062       1.87132
    81    C    8  dz2    Ryd( 3d)     0.00043       2.14283

    82    H    9  S      Val( 1S)     0.82004       0.06668
    83    H    9  S      Ryd( 2S)     0.00088       0.61500

    84    C   10  S      Cor( 1S)     1.99867     -10.09487
    85    C   10  S      Val( 2S)     1.15803      -0.25819
    86    C   10  S      Ryd( 3S)     0.00375       1.15964
    87    C   10  S      Ryd( 4S)     0.00001       4.20917
    88    C   10  px     Val( 2p)     0.91704      -0.04975
    89    C   10  px     Ryd( 3p)     0.00577       0.94138
    90    C   10  py     Val( 2p)     1.04056      -0.03884
    91    C   10  py     Ryd( 3p)     0.00683       0.73172
    92    C   10  pz     Val( 2p)     0.88755      -0.09386
    93    C   10  pz     Ryd( 3p)     0.00120       0.69907
    94    C   10  dxy    Ryd( 3d)     0.00045       2.26970
    95    C   10  dxz    Ryd( 3d)     0.00053       1.93593
    96    C   10  dyz    Ryd( 3d)     0.00086       1.90887
    97    C   10  dx2y2  Ryd( 3d)     0.00103       2.39201
    98    C   10  dz2    Ryd( 3d)     0.00035       2.17260

    99    C   11  S      Cor( 1S)     1.99923     -10.14688
   100    C   11  S      Val( 2S)     0.88776      -0.18851
   101    C   11  S      Ryd( 3S)     0.00680       1.14069
   102    C   11  S      Ryd( 4S)     0.00024       3.99451
   103    C   11  px     Val( 2p)     1.01702      -0.06263
   104    C   11  px     Ryd( 3p)     0.00457       0.90545
   105    C   11  py     Val( 2p)     0.82652      -0.00372
   106    C   11  py     Ryd( 3p)     0.01770       0.84536
   107    C   11  pz     Val( 2p)     0.77731      -0.10931
   108    C   11  pz     Ryd( 3p)     0.00266       0.70942
   109    C   11  dxy    Ryd( 3d)     0.00257       2.51873
   110    C   11  dxz    Ryd( 3d)     0.00057       2.00594
   111    C   11  dyz    Ryd( 3d)     0.00138       2.26090
   112    C   11  dx2y2  Ryd( 3d)     0.00161       2.51283
   113    C   11  dz2    Ryd( 3d)     0.00036       2.26607

   114    C   12  S      Cor( 1S)     1.99917     -10.09367
   115    C   12  S      Val( 2S)     0.97214      -0.22303
   116    C   12  S      Ryd( 3S)     0.00165       1.47262
   117    C   12  S      Ryd( 4S)     0.00004       4.38004
   118    C   12  px     Val( 2p)     0.92132      -0.07278
   119    C   12  px     Ryd( 3p)     0.00436       0.77365
   120    C   12  py     Val( 2p)     1.13597      -0.09355
   121    C   12  py     Ryd( 3p)     0.00330       0.82715
   122    C   12  pz     Val( 2p)     1.08681      -0.09530
   123    C   12  pz     Ryd( 3p)     0.00264       0.81571
   124    C   12  dxy    Ryd( 3d)     0.00111       2.23190
   125    C   12  dxz    Ryd( 3d)     0.00088       2.01153
   126    C   12  dyz    Ryd( 3d)     0.00100       2.13830
   127    C   12  dx2y2  Ryd( 3d)     0.00150       2.20911
   128    C   12  dz2    Ryd( 3d)     0.00096       2.28745

   129    C   13  S      Cor( 1S)     1.99940     -10.05307
   130    C   13  S      Val( 2S)     1.10678      -0.26149
   131    C   13  S      Ryd( 3S)     0.00043       1.29441
   132    C   13  S      Ryd( 4S)     0.00001       4.24407
   133    C   13  px     Val( 2p)     1.25233      -0.08389
   134    C   13  px     Ryd( 3p)     0.00226       0.71284
   135    C   13  py     Val( 2p)     1.24713      -0.08783
   136    C   13  py     Ryd( 3p)     0.00170       0.67214
   137    C   13  pz     Val( 2p)     1.06040      -0.07658
   138    C   13  pz     Ryd( 3p)     0.00115       0.55730
   139    C   13  dxy    Ryd( 3d)     0.00082       2.12104
   140    C   13  dxz    Ryd( 3d)     0.00034       1.93463
   141    C   13  dyz    Ryd( 3d)     0.00079       2.08293
   142    C   13  dx2y2  Ryd( 3d)     0.00060       2.02767
   143    C   13  dz2    Ryd( 3d)     0.00073       2.21200

   144    H   14  S      Val( 1S)     0.76043       0.08782
   145    H   14  S      Ryd( 2S)     0.00119       0.68810

   146    H   15  S      Val( 1S)     0.74998       0.09720
   147    H   15  S      Ryd( 2S)     0.00125       0.64971

   148    H   16  S      Val( 1S)     0.76244       0.08610
   149    H   16  S      Ryd( 2S)     0.00131       0.66155

   150    N   17  S      Cor( 1S)     1.99956     -14.15609
   151    N   17  S      Val( 2S)     1.35412      -0.53099
   152    N   17  S      Ryd( 3S)     0.00083       1.50828
   153    N   17  S      Ryd( 4S)     0.00001       3.84021
   154    N   17  px     Val( 2p)     1.45983      -0.19119
   155    N   17  px     Ryd( 3p)     0.00442       0.87453
   156    N   17  py     Val( 2p)     1.48038      -0.18533
   157    N   17  py     Ryd( 3p)     0.00327       0.99501
   158    N   17  pz     Val( 2p)     1.35605      -0.18233
   159    N   17  pz     Ryd( 3p)     0.00308       1.00757
   160    N   17  dxy    Ryd( 3d)     0.00081       2.09385
   161    N   17  dxz    Ryd( 3d)     0.00075       2.11331
   162    N   17  dyz    Ryd( 3d)     0.00069       1.99468
   163    N   17  dx2y2  Ryd( 3d)     0.00153       2.26324
   164    N   17  dz2    Ryd( 3d)     0.00115       2.41929

   165    H   18  S      Val( 1S)     0.76229       0.07747
   166    H   18  S      Ryd( 2S)     0.00207       0.71242

   167    C   19  S      Cor( 1S)     1.99950     -10.08002
   168    C   19  S      Val( 2S)     1.08938      -0.25021
   169    C   19  S      Ryd( 3S)     0.00111       1.21324
   170    C   19  S      Ryd( 4S)     0.00003       4.21461
   171    C   19  px     Val( 2p)     1.22214      -0.08177
   172    C   19  px     Ryd( 3p)     0.00221       0.70305
   173    C   19  py     Val( 2p)     1.23518      -0.08252
   174    C   19  py     Ryd( 3p)     0.00132       0.63581
   175    C   19  pz     Val( 2p)     0.91934      -0.05176
   176    C   19  pz     Ryd( 3p)     0.00222       0.54076
   177    C   19  dxy    Ryd( 3d)     0.00063       2.02021
   178    C   19  dxz    Ryd( 3d)     0.00114       2.02509
   179    C   19  dyz    Ryd( 3d)     0.00109       2.00268
   180    C   19  dx2y2  Ryd( 3d)     0.00080       2.05605
   181    C   19  dz2    Ryd( 3d)     0.00145       2.21844

   182    H   20  S      Val( 1S)     0.60465       0.14543
   183    H   20  S      Ryd( 2S)     0.00381       0.71349

   184    H   21  S      Val( 1S)     0.78335       0.07885
   185    H   21  S      Ryd( 2S)     0.00106       0.65481

   186    H   22  S      Val( 1S)     0.79307       0.07914
   187    H   22  S      Ryd( 2S)     0.00243       0.68624

   188    H   23  S      Val( 1S)     0.76889       0.09013
   189    H   23  S      Ryd( 2S)     0.00074       0.63030

   190    O   24  S      Cor( 1S)     1.99979     -18.86957
   191    O   24  S      Val( 2S)     1.69774      -0.88870
   192    O   24  S      Ryd( 3S)     0.00072       1.80519
   193    O   24  S      Ryd( 4S)     0.00006       3.61430
   194    O   24  px     Val( 2p)     1.85159      -0.25293
   195    O   24  px     Ryd( 3p)     0.00308       1.17930
   196    O   24  py     Val( 2p)     1.60730      -0.29963
   197    O   24  py     Ryd( 3p)     0.00037       1.22038
   198    O   24  pz     Val( 2p)     1.34893      -0.23625
   199    O   24  pz     Ryd( 3p)     0.00079       1.05138
   200    O   24  dxy    Ryd( 3d)     0.00408       2.08598
   201    O   24  dxz    Ryd( 3d)     0.00013       1.83790
   202    O   24  dyz    Ryd( 3d)     0.00408       1.88837
   203    O   24  dx2y2  Ryd( 3d)     0.00407       2.31684
   204    O   24  dz2    Ryd( 3d)     0.00126       2.03484

   205    C   25  S      Cor( 1S)     1.99932     -10.06198
   206    C   25  S      Val( 2S)     1.10353      -0.26616
   207    C   25  S      Ryd( 3S)     0.00052       1.26042
   208    C   25  S      Ryd( 4S)     0.00001       4.22697
   209    C   25  px     Val( 2p)     1.16346      -0.08977
   210    C   25  px     Ryd( 3p)     0.00081       0.57812
   211    C   25  py     Val( 2p)     1.17070      -0.09196
   212    C   25  py     Ryd( 3p)     0.00121       0.59465
   213    C   25  pz     Val( 2p)     1.24903      -0.09856
   214    C   25  pz     Ryd( 3p)     0.00232       0.65273
   215    C   25  dxy    Ryd( 3d)     0.00080       2.20631
   216    C   25  dxz    Ryd( 3d)     0.00039       1.95401
   217    C   25  dyz    Ryd( 3d)     0.00106       2.20471
   218    C   25  dx2y2  Ryd( 3d)     0.00047       1.89593
   219    C   25  dz2    Ryd( 3d)     0.00054       2.04835

   220    H   26  S      Val( 1S)     0.73618       0.08131
   221    H   26  S      Ryd( 2S)     0.00070       0.63758

   222    H   27  S      Val( 1S)     0.76653       0.06885
   223    H   27  S      Ryd( 2S)     0.00157       0.65439

   224    H   28  S      Val( 1S)     0.75329       0.08206
   225    H   28  S      Ryd( 2S)     0.00086       0.64976

 WARNING:  1 low occupancy (<1.9990e) core orbital  found on  C 5
           1 low occupancy (<1.9990e) core orbital  found on  C 8
           1 low occupancy (<1.9990e) core orbital  found on  C10


 Summary of Natural Population Analysis:                  
                                                          
                                       Natural Population 
                Natural  -----------------------------------------------
    Atom  No    Charge         Core      Valence    Rydberg      Total
 -----------------------------------------------------------------------
      H    1    0.23046      0.00000     0.76688    0.00266     0.76954
      C    2   -0.27923      1.99905     4.26654    0.01365     6.27923
      C    3   -0.15992      1.99906     4.14491    0.01595     6.15992
      H    4    0.24206      0.00000     0.75690    0.00104     0.75794
      C    5   -0.17787      1.99870     4.16478    0.01439     6.17787
      H    6    0.22956      0.00000     0.76821    0.00222     0.77044
      C    7   -0.11654      1.99904     4.10061    0.01689     6.11654
      C    8   -0.15068      1.99871     4.13516    0.01681     6.15068
      H    9    0.17908      0.00000     0.82004    0.00088     0.82092
      C   10   -0.02264      1.99867     4.00319    0.02078     6.02264
      C   11    0.45370      1.99923     3.50861    0.03847     5.54630
      C   12   -0.13287      1.99917     4.11625    0.01745     6.13287
      C   13   -0.67487      1.99940     4.66664    0.00883     6.67487
      H   14    0.23839      0.00000     0.76043    0.00119     0.76161
      H   15    0.24877      0.00000     0.74998    0.00125     0.75123
      H   16    0.23625      0.00000     0.76244    0.00131     0.76375
      N   17   -0.66648      1.99956     5.65038    0.01653     7.66648
      H   18    0.23564      0.00000     0.76229    0.00207     0.76436
      C   19   -0.47752      1.99950     4.46603    0.01199     6.47752
      H   20    0.39154      0.00000     0.60465    0.00381     0.60846
      H   21    0.21559      0.00000     0.78335    0.00106     0.78441
      H   22    0.20450      0.00000     0.79307    0.00243     0.79550
      H   23    0.23037      0.00000     0.76889    0.00074     0.76963
      O   24   -0.52399      1.99979     6.50556    0.01863     8.52399
      C   25   -0.69417      1.99932     4.68672    0.00812     6.69417
      H   26    0.26312      0.00000     0.73618    0.00070     0.73688
      H   27    0.23189      0.00000     0.76653    0.00157     0.76811
      H   28    0.24585      0.00000     0.75329    0.00086     0.75415
 =======================================================================
   * Total *    0.00000     25.98920    69.76851    0.24229    96.00000

                                 Natural Population      
 --------------------------------------------------------
   Core                      25.98920 ( 99.9585% of  26)
   Valence                   69.76851 ( 99.6693% of  70)
   Natural Minimal Basis     95.75771 ( 99.7476% of  96)
   Natural Rydberg Basis      0.24229 (  0.2524% of  96)
 --------------------------------------------------------

    Atom  No          Natural Electron Configuration
 ----------------------------------------------------------------------------
      H    1            1S( 0.77)
      C    2      [core]2S( 0.99)2p( 3.27)3p( 0.01)
      C    3      [core]2S( 0.97)2p( 3.17)3p( 0.01)
      H    4            1S( 0.76)
      C    5      [core]2S( 0.98)2p( 3.19)3p( 0.01)
      H    6            1S( 0.77)
      C    7      [core]2S( 0.93)2p( 3.17)3p( 0.01)
      C    8      [core]2S( 1.24)2p( 2.90)3p( 0.01)
      H    9            1S( 0.82)
      C   10      [core]2S( 1.16)2p( 2.85)3p( 0.01)
      C   11      [core]2S( 0.89)2p( 2.62)3S( 0.01)3p( 0.02)3d( 0.01)
      C   12      [core]2S( 0.97)2p( 3.14)3p( 0.01)3d( 0.01)
      C   13      [core]2S( 1.11)2p( 3.56)3p( 0.01)
      H   14            1S( 0.76)
      H   15            1S( 0.75)
      H   16            1S( 0.76)
      N   17      [core]2S( 1.35)2p( 4.30)3p( 0.01)
      H   18            1S( 0.76)
      C   19      [core]2S( 1.09)2p( 3.38)3p( 0.01)3d( 0.01)
      H   20            1S( 0.60)
      H   21            1S( 0.78)
      H   22            1S( 0.79)
      H   23            1S( 0.77)
      O   24      [core]2S( 1.70)2p( 4.81)3d( 0.01)
      C   25      [core]2S( 1.10)2p( 3.58)
      H   26            1S( 0.74)
      H   27            1S( 0.77)
      H   28            1S( 0.75)


 NATURAL BOND ORBITAL ANALYSIS:

                       Occupancies       Lewis Structure    Low   High
           Occ.    -------------------  -----------------   occ   occ
  Cycle   Thresh.   Lewis   Non-Lewis     CR  BD  3C  LP    (L)   (NL)   Dev
 =============================================================================
   1(1)    1.90    91.75776   4.24224     13  32   0   3     8      7    0.59
   2(2)    1.90    91.75776   4.24224     13  32   0   3     8      7    0.59
   3(1)    1.80    93.40281   2.59719     13  31   0   4     4      5    0.58
   4(2)    1.80    93.40281   2.59719     13  31   0   4     4      5    0.58
   5(1)    1.70    94.13824   1.86176     13  32   0   3     0      5    0.27
   6(2)    1.70    94.13824   1.86176     13  32   0   3     0      5    0.27
   7(1)    1.60    94.13824   1.86176     13  32   0   3     0      5    0.27
   8(2)    1.60    94.13824   1.86176     13  32   0   3     0      5    0.27
   9(1)    1.50    93.13532   2.86468     13  32   0   3     2      6    0.27
  10(2)    1.50    93.13532   2.86468     13  32   0   3     2      6    0.27
  11(1)    1.70    94.13824   1.86176     13  32   0   3     0      5    0.27
 -----------------------------------------------------------------------------

 Structure accepted: RESONANCE keyword permits strongly delocalized structure

 WARNING:  1 low occupancy (<1.9990e) core orbital  found on  C 5
           1 low occupancy (<1.9990e) core orbital  found on  C 8
           1 low occupancy (<1.9990e) core orbital  found on  C10

 --------------------------------------------------------
   Core                     25.98918 ( 99.958% of  26)
   Valence Lewis            68.14906 ( 97.356% of  70)
  ==================       ============================
   Total Lewis              94.13824 ( 98.061% of  96)
  -----------------------------------------------------
   Valence non-Lewis         1.70139 (  1.772% of  96)
   Rydberg non-Lewis         0.16037 (  0.167% of  96)
  ==================       ============================
   Total non-Lewis           1.86176 (  1.939% of  96)
 --------------------------------------------------------


       (Occupancy)   Bond orbital/ Coefficients/ Hybrids
 ---------------------------------------------------------------------------------
     1. (1.96351) BD ( 1) H   1 - C   2  
                ( 37.98%)   0.6162* H   1 s(100.00%)
                                            1.0000  0.0072
                ( 62.02%)   0.7876* C   2 s( 30.38%)p 2.29( 69.56%)d 0.00(  0.06%)
                                           -0.0006  0.5509  0.0178 -0.0015  0.6138
                                           -0.0124  0.5642 -0.0033  0.0167  0.0022
                                            0.0200  0.0039  0.0087 -0.0013 -0.0116
     2. (1.97925) BD ( 1) C   2 - C   3  
                ( 50.57%)   0.7111* C   2 s( 35.22%)p 1.84( 64.73%)d 0.00(  0.04%)
                                            0.0001  0.5934 -0.0100  0.0008 -0.7607
                                           -0.0071  0.2507  0.0321 -0.0693 -0.0036
                                           -0.0086  0.0068 -0.0027  0.0136 -0.0102
                ( 49.43%)   0.7031* C   3 s( 34.99%)p 1.86( 64.96%)d 0.00(  0.04%)
                                            0.0001  0.5914 -0.0118  0.0013  0.7482
                                            0.0283 -0.2166  0.0246  0.2037  0.0031
                                           -0.0105  0.0072 -0.0019  0.0131 -0.0106
     3. (1.98156) BD ( 1) C   2 - C  10  
                ( 53.26%)   0.7298* C   2 s( 34.11%)p 1.93( 65.85%)d 0.00(  0.04%)
                                           -0.0001  0.5840 -0.0053  0.0004  0.1993
                                            0.0116 -0.7857 -0.0097 -0.0350  0.0004
                                           -0.0050  0.0001  0.0025 -0.0156 -0.0110
                ( 46.74%)   0.6836* C  10 s( 40.77%)p 1.45( 59.16%)d 0.00(  0.06%)
                                            0.0000  0.6377 -0.0323  0.0004 -0.2176
                                           -0.0070  0.7368  0.0329 -0.0161 -0.0033
                                           -0.0041 -0.0006  0.0022 -0.0215 -0.0127
     4. (1.76463) BD ( 2) C   2 - C  10  
                ( 46.51%)   0.6820* C   2 s(  0.33%)p99.99( 99.61%)d 0.20(  0.07%)
                                            0.0010  0.0528 -0.0216  0.0009 -0.0558
                                            0.0038 -0.0190 -0.0152  0.9958 -0.0276
                                           -0.0079  0.0017 -0.0232  0.0072 -0.0031
                ( 53.49%)   0.7314* C  10 s(  3.77%)p25.48( 96.13%)d 0.03(  0.10%)
                                           -0.0009 -0.1942 -0.0055 -0.0006  0.0711
                                            0.0035  0.2100 -0.0071  0.9550 -0.0018
                                           -0.0002  0.0107  0.0291 -0.0013  0.0050
     5. (1.97688) BD ( 1) C   3 - H   4  
                ( 62.15%)   0.7884* C   3 s( 29.81%)p 2.35( 70.13%)d 0.00(  0.05%)
                                           -0.0004  0.5459  0.0129 -0.0025 -0.1711
                                           -0.0029  0.8150 -0.0152 -0.0867  0.0051
                                           -0.0080 -0.0004  0.0009 -0.0180 -0.0123
                ( 37.85%)   0.6152* H   4 s(100.00%)
                                            1.0000  0.0019
     6. (1.97935) BD ( 1) C   3 - C   5  
                ( 50.09%)   0.7078* C   3 s( 34.99%)p 1.86( 64.97%)d 0.00(  0.04%)
                                           -0.0001  0.5915 -0.0044  0.0016 -0.5705
                                           -0.0252 -0.5358  0.0145 -0.1897 -0.0185
                                            0.0149  0.0054  0.0072 -0.0027 -0.0092
                ( 49.91%)   0.7065* C   5 s( 37.32%)p 1.68( 62.64%)d 0.00(  0.04%)
                                           -0.0001  0.6108 -0.0122  0.0009  0.5937
                                           -0.0005  0.5167  0.0280  0.0773 -0.0135
                                            0.0153  0.0076  0.0068 -0.0002 -0.0073
     7. (1.72820) BD ( 2) C   3 - C   5  
                ( 47.67%)   0.6904* C   3 s(  0.19%)p99.99( 99.78%)d 0.16(  0.03%)
                                            0.0011  0.0408 -0.0159 -0.0008 -0.2883
                                           -0.0059  0.0142 -0.0050  0.9560 -0.0197
                                            0.0022 -0.0032 -0.0161  0.0043 -0.0040
                ( 52.33%)   0.7234* C   5 s(  3.35%)p28.81( 96.60%)d 0.01(  0.05%)
                                           -0.0016 -0.1831 -0.0022  0.0004 -0.2322
                                            0.0032  0.3499 -0.0074  0.8882 -0.0258
                                           -0.0007  0.0056  0.0151 -0.0010  0.0147
     8. (1.93662) BD ( 1) C   5 - H   6  
                ( 60.89%)   0.7803* C   5 s( 23.44%)p 3.26( 76.49%)d 0.00(  0.08%)
                                            0.0005 -0.4839 -0.0137  0.0022  0.7675
                                           -0.0144 -0.3451 -0.0062  0.2371  0.0178
                                            0.0129 -0.0029  0.0002 -0.0202  0.0139
                ( 39.11%)   0.6254* H   6 s(100.00%)
                                           -1.0000 -0.0037
     9. (1.97495) BD ( 1) C   5 - C   7  
                ( 49.36%)   0.7026* C   5 s( 35.87%)p 1.79( 64.08%)d 0.00(  0.05%)
                                            0.0001  0.5989 -0.0044  0.0012 -0.0566
                                           -0.0057 -0.6994 -0.0157  0.3847  0.0096
                                            0.0064 -0.0045 -0.0192 -0.0069  0.0020
                ( 50.64%)   0.7116* C   7 s( 32.20%)p 2.10( 67.75%)d 0.00(  0.05%)
                                            0.0000  0.5675 -0.0003  0.0014  0.2849
                                           -0.0118  0.4503  0.0000 -0.6271 -0.0125
                                            0.0078 -0.0065 -0.0178 -0.0049  0.0061
    10. (1.98505) BD ( 1) C   7 - C   8  
                ( 54.81%)   0.7403* C   7 s( 33.26%)p 2.01( 66.71%)d 0.00(  0.03%)
                                           -0.0002  0.5766 -0.0060 -0.0011  0.4742
                                            0.0003 -0.1143 -0.0011  0.6547  0.0219
                                           -0.0003  0.0142 -0.0013  0.0051  0.0105
                ( 45.19%)   0.6722* C   8 s( 37.83%)p 1.64( 62.10%)d 0.00(  0.07%)
                                            0.0003  0.6144 -0.0278  0.0025 -0.2841
                                           -0.0252 -0.0708 -0.0023 -0.7305 -0.0298
                                            0.0035  0.0193  0.0069  0.0043  0.0163
    11. (1.79573) BD ( 2) C   7 - C   8  
                ( 46.42%)   0.6813* C   7 s(  1.00%)p98.45( 98.91%)d 0.08(  0.09%)
                                           -0.0011  0.0960  0.0289 -0.0012 -0.4943
                                           -0.0094  0.7588 -0.0321  0.4076 -0.0427
                                            0.0121  0.0028  0.0250 -0.0049  0.0068
                ( 53.58%)   0.7320* C   8 s(  9.86%)p 9.13( 90.03%)d 0.01(  0.11%)
                                            0.0009  0.3140  0.0038  0.0012 -0.3692
                                           -0.0055  0.8091 -0.0034  0.3300 -0.0184
                                           -0.0121  0.0084 -0.0207  0.0185 -0.0091
    12. (1.97250) BD ( 1) C   7 - C  25  
                ( 51.21%)   0.7156* C   7 s( 33.59%)p 1.98( 66.38%)d 0.00(  0.04%)
                                           -0.0004  0.5795  0.0083 -0.0008 -0.6687
                                            0.0072 -0.4532 -0.0057 -0.1052  0.0022
                                            0.0166  0.0054  0.0061  0.0022 -0.0054
                ( 48.79%)   0.6985* C  25 s( 28.34%)p 2.53( 71.62%)d 0.00(  0.05%)
                                            0.0004  0.5322 -0.0112  0.0019  0.5825
                                            0.0048  0.5873  0.0037  0.1787  0.0054
                                            0.0176  0.0046  0.0059 -0.0014 -0.0096
    13. (1.97847) BD ( 1) C   8 - H   9  
                ( 59.04%)   0.7684* C   8 s( 36.94%)p 1.70( 62.97%)d 0.00(  0.10%)
                                            0.0004 -0.6076  0.0150  0.0026  0.0888
                                           -0.0226  0.5173  0.0062 -0.5935 -0.0368
                                           -0.0117  0.0085  0.0243  0.0136 -0.0002
                ( 40.96%)   0.6400* H   9 s(100.00%)
                                           -1.0000 -0.0043
    14. (1.72145) BD ( 1) C   8 - C  10  
                ( 49.73%)   0.7052* C   8 s( 15.52%)p 5.44( 84.44%)d 0.00(  0.04%)
                                           -0.0003  0.3920  0.0399  0.0002  0.8780
                                           -0.0436  0.2637 -0.0263 -0.0377  0.0049
                                           -0.0092 -0.0144  0.0070 -0.0007  0.0064
                ( 50.27%)   0.7090* C  10 s( 14.96%)p 5.68( 85.01%)d 0.00(  0.03%)
                                           -0.0005  0.3840  0.0463  0.0012 -0.7076
                                            0.0499 -0.5339  0.0147  0.2482 -0.0107
                                           -0.0090 -0.0086  0.0041  0.0023  0.0125
    15. (1.97940) BD ( 1) C  10 - C  11  
                ( 49.32%)   0.7023* C  10 s( 40.78%)p 1.45( 59.15%)d 0.00(  0.07%)
                                           -0.0001  0.6384 -0.0160 -0.0010  0.6649
                                            0.0000 -0.3515 -0.0328  0.1573  0.0028
                                           -0.0091  0.0107 -0.0020  0.0200 -0.0103
                ( 50.68%)   0.7119* C  11 s( 33.93%)p 1.95( 66.01%)d 0.00(  0.06%)
                                           -0.0001  0.5824  0.0071 -0.0025 -0.7670
                                            0.0008  0.2324 -0.0232 -0.1309 -0.0049
                                           -0.0128  0.0062 -0.0041  0.0190 -0.0081
    16. (1.95852) BD ( 1) C  11 - C  12  
                ( 49.43%)   0.7030* C  11 s( 36.86%)p 1.71( 63.09%)d 0.00(  0.04%)
                                           -0.0003  0.6068  0.0222  0.0008  0.5888
                                           -0.0087  0.5092 -0.0160  0.1568 -0.0075
                                            0.0184  0.0077  0.0033  0.0018 -0.0062
                ( 50.57%)   0.7111* C  12 s( 24.81%)p 3.03( 75.13%)d 0.00(  0.06%)
                                            0.0003  0.4981  0.0055  0.0003 -0.6272
                                            0.0018 -0.5408  0.0043 -0.2556 -0.0046
                                            0.0197  0.0093  0.0062  0.0044 -0.0087
    17. (1.99653) BD ( 1) C  11 - O  24  
                ( 33.98%)   0.5829* C  11 s( 29.04%)p 2.44( 70.84%)d 0.00(  0.12%)
                                            0.0001 -0.5365  0.0506  0.0020 -0.1741
                                           -0.0072  0.8169  0.0708  0.0756  0.0025
                                            0.0117  0.0026 -0.0036  0.0290  0.0138
                ( 66.02%)   0.8126* O  24 s( 42.81%)p 1.33( 56.86%)d 0.01(  0.33%)
                                            0.0000 -0.6542  0.0112  0.0009  0.1283
                                           -0.0017 -0.7430  0.0099  0.0026 -0.0004
                                            0.0179  0.0016 -0.0027  0.0478  0.0262
    18. (1.95664) BD ( 2) C  11 - O  24  
                ( 34.47%)   0.5871* C  11 s(  0.05%)p99.99( 99.80%)d 3.02(  0.15%)
                                            0.0001  0.0223 -0.0002 -0.0003 -0.1839
                                            0.0066 -0.1145 -0.0017  0.9749 -0.0254
                                            0.0071  0.0061 -0.0370 -0.0046 -0.0048
                ( 65.53%)   0.8095* O  24 s(  0.05%)p99.99( 99.64%)d 6.80(  0.32%)
                                            0.0000  0.0216 -0.0008 -0.0001 -0.1841
                                            0.0019 -0.0475  0.0006  0.9798 -0.0125
                                           -0.0103 -0.0092  0.0544  0.0043  0.0039
    19. (1.96437) BD ( 1) C  12 - C  13  
                ( 51.51%)   0.7177* C  12 s( 26.96%)p 2.71( 73.00%)d 0.00(  0.04%)
                                           -0.0002  0.5192 -0.0081  0.0007 -0.0560
                                            0.0111  0.1461  0.0145  0.8397 -0.0031
                                            0.0003 -0.0048  0.0035 -0.0019  0.0193
                ( 48.49%)   0.6963* C  13 s( 27.34%)p 2.66( 72.61%)d 0.00(  0.04%)
                                            0.0006  0.5228 -0.0090  0.0023  0.0383
                                            0.0046 -0.1542  0.0056 -0.8371 -0.0065
                                           -0.0001 -0.0007  0.0074 -0.0012  0.0195
    20. (1.98276) BD ( 1) C  12 - N  17  
                ( 41.16%)   0.6416* C  12 s( 24.22%)p 3.13( 75.68%)d 0.00(  0.11%)
                                            0.0000  0.4915 -0.0241  0.0000  0.7714
                                            0.0320 -0.3520  0.0076 -0.1917  0.0041
                                           -0.0202 -0.0117  0.0054  0.0174 -0.0146
                ( 58.84%)   0.7670* N  17 s( 29.72%)p 2.36( 70.21%)d 0.00(  0.06%)
                                            0.0000  0.5452 -0.0007  0.0014 -0.7492
                                           -0.0025  0.3285  0.0127  0.1804  0.0126
                                           -0.0068 -0.0026 -0.0061  0.0206 -0.0105
    21. (1.97022) BD ( 1) C  12 - H  18  
                ( 62.07%)   0.7879* C  12 s( 24.00%)p 3.16( 75.92%)d 0.00(  0.07%)
                                           -0.0003  0.4897  0.0155 -0.0009 -0.0787
                                            0.0122  0.7489 -0.0085 -0.4380  0.0116
                                           -0.0045  0.0034 -0.0196 -0.0172 -0.0021
                ( 37.93%)   0.6159* H  18 s(100.00%)
                                            1.0000  0.0049
    22. (1.98855) BD ( 1) C  13 - H  14  
                ( 61.94%)   0.7870* C  13 s( 24.43%)p 3.09( 75.50%)d 0.00(  0.06%)
                                            0.0000 -0.4943 -0.0019  0.0006  0.7649
                                           -0.0065 -0.3555 -0.0009 -0.2079 -0.0164
                                            0.0154  0.0085 -0.0037 -0.0139  0.0110
                ( 38.06%)   0.6169* H  14 s(100.00%)
                                           -1.0000 -0.0008
    23. (1.98442) BD ( 1) C  13 - H  15  
                ( 62.40%)   0.7899* C  13 s( 24.32%)p 3.11( 75.62%)d 0.00(  0.06%)
                                           -0.0001  0.4932  0.0007 -0.0007  0.6357
                                           -0.0067  0.5439 -0.0035  0.2366  0.0114
                                            0.0194  0.0078  0.0068  0.0031 -0.0102
                ( 37.60%)   0.6132* H  15 s(100.00%)
                                            1.0000  0.0013
    24. (1.98987) BD ( 1) C  13 - H  16  
                ( 61.93%)   0.7869* C  13 s( 23.88%)p 3.19( 76.06%)d 0.00(  0.06%)
                                            0.0000  0.4886  0.0037 -0.0006  0.0913
                                           -0.0008 -0.7437  0.0104  0.4460  0.0153
                                           -0.0037  0.0018 -0.0186 -0.0161 -0.0036
                ( 38.07%)   0.6170* H  16 s(100.00%)
                                            1.0000  0.0016
    25. (1.99084) BD ( 1) N  17 - C  19  
                ( 60.12%)   0.7753* N  17 s( 28.74%)p 2.48( 71.20%)d 0.00(  0.06%)
                                            0.0000 -0.5361  0.0048  0.0000 -0.1954
                                           -0.0265 -0.0079 -0.0014  0.8204  0.0088
                                            0.0055 -0.0030 -0.0066  0.0029 -0.0226
                ( 39.88%)   0.6315* C  19 s( 24.65%)p 3.05( 75.22%)d 0.00(  0.12%)
                                           -0.0002 -0.4958  0.0276 -0.0004  0.2077
                                           -0.0158  0.0108  0.0038 -0.8410 -0.0385
                                            0.0008  0.0134  0.0008 -0.0015 -0.0323
    26. (1.97970) BD ( 1) N  17 - H  20  
                ( 70.21%)   0.8379* N  17 s( 22.24%)p 3.49( 77.67%)d 0.00(  0.09%)
[...]
                                                    60(v),196(g),195(g),200(v)
   2. BD (   1) C   2 - C   3          1.97925    -0.71378  196(g),199(g),201(v),208(v)
                                                    103(v),194(g),72(v),198(g)
                                                    71(v)
   3. BD (   1) C   2 - C  10          1.98156    -0.71000  195(g),207(g),198(v),210(v)
                                                    197(g),60(v),194(g),114(v)
   4. BD (   2) C   2 - C  10          1.76463    -0.25442  211(v),200(v),207(g),210(v)
                                                    197(g),61(v),209(v),194(g)
                                                    62(v)
   5. BD (   1) C   3 - H   4          1.97688    -0.53505  196(v),202(v),71(v),199(g)
                                                    50(v),197(v),195(g)
   6. BD (   1) C   3 - C   5          1.97935    -0.70395  205(v),202(g),195(g),194(v)
                                                    50(v),82(v),200(g),201(g)
                                                    198(g),84(v),52(v)
   7. BD (   2) C   3 - C   5          1.72820    -0.26355  197(v),204(v),205(v),53(v)
                                                    207(r),84(v),199(g),203(v)
   8. BD (   1) C   5 - H   6          1.93662    -0.49772  204(v),203(v),195(v),200(g)
                                                    83(v),60(v),199(g),202(g)
   9. BD (   1) C   5 - C   7          1.97495    -0.68964  199(g),198(v),203(g),204(g)
                                                    61(v),206(v),205(g),181(v)
                                                    225(v),92(v),201(g)
  10. BD (   1) C   7 - C   8          1.98505    -0.69589  202(g),207(g),200(v),205(g)
                                                    201(v),224(v),72(v),181(v)
                                                    204(g)
  11. BD (   2) C   7 - C   8          1.79573    -0.26862  200(v),207(g),224(v),202(g)
                                                    223(v),73(v),201(v)
  12. BD (   1) C   7 - C  25          1.97250    -0.63156  207(v),199(v),203(g),202(g)
                                                    204(g),200(v),92(v),223(g)
                                                    224(g),72(v)
  13. BD (   1) C   8 - H   9          1.97847    -0.53853  207(g),202(v),204(g),82(v)
  14. BD (   1) C   8 - C  10          1.72145    -0.21514  204(g),197(g),205(v),194(v)
                                                    208(g),206(g),211(v),209(v)
                                                    202(v),82(v),195(v),210(v)
                                                    196(g),50(v),203(g),201(r)
                                                    114(v),102(v)
  15. BD (   1) C  10 - C  11          1.97940    -0.66745  207(g),195(v),197(g),213(v)
                                                    171(v),50(v),210(g),123(v)
  16. BD (   1) C  11 - C  12          1.95852    -0.62075  207(v),216(v),171(v),103(v)
                                                    208(g),146(v),104(v),134(v)
  17. BD (   1) C  11 - O  24          1.99653    -1.06336  113(g),209(g),196(v)
  18. BD (   2) C  11 - O  24          1.95664    -0.36707  197(v),207(v),212(v),214(v)
  19. BD (   1) C  12 - C  13          1.96437    -0.59361  211(v),218(v),147(v),214(g)
                                                    209(g),115(v),146(v)
  20. BD (   1) C  12 - N  17          1.98276    -0.70312  208(v),215(v),222(v),157(v)
                                                    133(v),113(v),159(v)
  21. BD (   1) C  12 - H  18          1.97022    -0.50794  219(v),217(v),210(v),211(v)
                                                    116(v)
  22. BD (   1) C  13 - H  14          1.98855    -0.49916  213(v)
  23. BD (   1) C  13 - H  15          1.98442    -0.49331  209(v)
  24. BD (   1) C  13 - H  16          1.98987    -0.49503  214(v),125(v)
  25. BD (   1) N  17 - C  19          1.99084    -0.68785  212(v),123(v)
  26. BD (   1) N  17 - H  20          1.97970    -0.58644  214(v),220(v),124(v),159(v)
  27. BD (   1) C  19 - H  21          1.99131    -0.49779  219(v)
  28. BD (   1) C  19 - H  22          1.99561    -0.49793  146(v)
  29. BD (   1) C  19 - H  23          1.99014    -0.49730  213(v)
  30. BD (   1) C  25 - H  26          1.96887    -0.50605  204(v),203(v),83(v)
  31. BD (   1) C  25 - H  27          1.98421    -0.50442  203(v),204(v)
  32. BD (   1) C  25 - H  28          1.99048    -0.50677  202(v),82(v)
  33. CR (   1) C   2                  1.99905   -10.07234  62(v),104(v),103(v),208(v)
                                                    199(v),198(v),49(v)
  34. CR (   1) C   3                  1.99907   -10.06692  52(v),72(v),202(v),196(v)
                                                    194(v)
  35. CR (   1) C   5                  1.99864   -10.05534  200(g),83(v),84(v),60(v)
                                                    205(v),203(v),195(v),204(v)
                                                    198(v)
  36. CR (   1) C   7                  1.99904   -10.07539  94(v),73(v),200(v),182(v)
                                                    199(v)
  37. CR (   1) C   8                  1.99872   -10.08205  207(g),82(v),204(g),202(v)
                                                    205(v),203(g),102(v),84(v)
  38. CR (   1) C  10                  1.99868   -10.09501  207(g),197(g),50(v),114(v)
                                                    195(v),194(v),52(v),210(v)
  39. CR (   1) C  11                  1.99922   -10.14732  104(v),125(v),124(v),196(v)
                                                    207(v)
  40. CR (   1) C  12                  1.99916   -10.09379  114(v),135(v),208(v),218(v)
  41. CR (   1) C  13                  1.99940   -10.05266  125(v)
  42. CR (   1) N  17                  1.99956   -14.15608  124(v),159(v),160(v)
  43. CR (   1) C  19                  1.99950   -10.07983  213(v)
  44. CR (   1) O  24                  1.99979   -18.87083  113(v),209(v)
  45. CR (   1) C  25                  1.99932   -10.06189  204(v),203(v),202(v),82(v)
                                                    83(v)
  46. LP (   1) N  17                  1.88672    -0.28701  209(v),221(v),212(v),220(v)
                                                    124(v),158(v),222(v),126(v)
                                                    157(v),125(v)
  47. LP (   1) O  24                  1.97893    -0.68021  113(v),209(v),208(v)
  48. LP (   2) O  24                  1.88282    -0.25446  208(v),209(v),117(v),219(r)
                                                    114(v),116(v)
  49. RY*(   1) H   1                  0.00270     0.64190   
  50. RY*(   1) C   2                  0.00467     1.10236   
  51. RY*(   2) C   2                  0.00286     1.38636   
  52. RY*(   3) C   2                  0.00177     0.88732   
  53. RY*(   4) C   2                  0.00102     1.18240   
  54. RY*(   5) C   2                  0.00016     1.71068   
  55. RY*(   6) C   2                  0.00011     1.68463   
  56. RY*(   7) C   2                  0.00007     2.30203   
  57. RY*(   8) C   2                  0.00001     1.84187   
  58. RY*(   9) C   2                  0.00002     4.00099   
  59. RY*(  10) C   2                  0.00002     2.22760   
  60. RY*(   1) C   3                  0.00518     1.12595   
  61. RY*(   2) C   3                  0.00283     0.69205   
  62. RY*(   3) C   3                  0.00132     0.79460   
  63. RY*(   4) C   3                  0.00106     1.17396   
  64. RY*(   5) C   3                  0.00042     1.85445   
  65. RY*(   6) C   3                  0.00014     2.18392   
  66. RY*(   7) C   3                  0.00007     2.86035   
  67. RY*(   8) C   3                  0.00004     2.22464   
  68. RY*(   9) C   3                  0.00001     3.40775   
  69. RY*(  10) C   3                  0.00001     1.98800   
  70. RY*(   1) H   4                  0.00104     0.55889   
  71. RY*(   1) C   5                  0.00396     1.01194   
  72. RY*(   2) C   5                  0.00325     0.74582   
  73. RY*(   3) C   5                  0.00093     0.83956   
  74. RY*(   4) C   5                  0.00060     1.62099   
  75. RY*(   5) C   5                  0.00032     1.39373   
  76. RY*(   6) C   5                  0.00012     2.27677   
  77. RY*(   7) C   5                  0.00006     2.64837   
  78. RY*(   8) C   5                  0.00004     3.07812   
  79. RY*(   9) C   5                  0.00001     2.62179   
  80. RY*(  10) C   5                  0.00001     2.20976   
  81. RY*(   1) H   6                  0.00223     0.65936   
  82. RY*(   1) C   7                  0.00902     0.95688   
  83. RY*(   2) C   7                  0.00280     0.99927   
  84. RY*(   3) C   7                  0.00211     0.98149   
  85. RY*(   4) C   7                  0.00128     1.45120   
  86. RY*(   5) C   7                  0.00059     2.18159   
  87. RY*(   6) C   7                  0.00048     2.16052   
  88. RY*(   7) C   7                  0.00017     1.75471   
  89. RY*(   8) C   7                  0.00004     1.68393   
  90. RY*(   9) C   7                  0.00004     4.08267   
  91. RY*(  10) C   7                  0.00001     2.32747   
  92. RY*(   1) C   8                  0.00352     0.89013   
  93. RY*(   2) C   8                  0.00100     0.71694   
  94. RY*(   3) C   8                  0.00067     0.65556   
  95. RY*(   4) C   8                  0.00016     1.19918   
  96. RY*(   5) C   8                  0.00006     1.91152   
  97. RY*(   6) C   8                  0.00001     1.95370   
  98. RY*(   7) C   8                  0.00001     2.13510   
  99. RY*(   8) C   8                  0.00001     1.94713   
 100. RY*(   9) C   8                  0.00001     1.89239   
 101. RY*(  10) C   8                  0.00000     4.11254   
 102. RY*(   1) H   9                  0.00090     0.61263   
 103. RY*(   1) C  10                  0.00499     0.71909   
 104. RY*(   2) C  10                  0.00474     0.98255   
 105. RY*(   3) C  10                  0.00143     0.93370   
 106. RY*(   4) C  10                  0.00097     1.07166   
 107. RY*(   5) C  10                  0.00029     1.93879   
 108. RY*(   6) C  10                  0.00010     2.26486   
 109. RY*(   7) C  10                  0.00006     2.25523   
 110. RY*(   8) C  10                  0.00002     1.87535   
 111. RY*(   9) C  10                  0.00001     4.20193   
 112. RY*(  10) C  10                  0.00001     2.15324   
 113. RY*(   1) C  11                  0.01574     0.82412   
 114. RY*(   2) C  11                  0.00542     1.32416   
 115. RY*(   3) C  11                  0.00304     1.20729   
 116. RY*(   4) C  11                  0.00219     1.34519   
 117. RY*(   5) C  11                  0.00193     1.95294   
 118. RY*(   6) C  11                  0.00095     1.99815   
 119. RY*(   7) C  11                  0.00041     2.29101   
 120. RY*(   8) C  11                  0.00006     3.92162   
 121. RY*(   9) C  11                  0.00004     1.88553   
 122. RY*(  10) C  11                  0.00002     2.38443   
 123. RY*(   1) C  12                  0.00406     1.10972   
 124. RY*(   2) C  12                  0.00341     0.89901   
 125. RY*(   3) C  12                  0.00231     0.97886   
 126. RY*(   4) C  12                  0.00134     1.98270   
 127. RY*(   5) C  12                  0.00053     1.86974   
 128. RY*(   6) C  12                  0.00043     1.79069   
 129. RY*(   7) C  12                  0.00023     1.96608   
 130. RY*(   8) C  12                  0.00018     2.03142   
 131. RY*(   9) C  12                  0.00014     2.16446   
 132. RY*(  10) C  12                  0.00002     4.33564   
 133. RY*(   1) C  13                  0.00257     0.79159   
 134. RY*(   2) C  13                  0.00158     0.96257   
 135. RY*(   3) C  13                  0.00048     0.93011   
 136. RY*(   4) C  13                  0.00020     1.04842   
 137. RY*(   5) C  13                  0.00009     2.11634   
 138. RY*(   6) C  13                  0.00004     1.85690   
 139. RY*(   7) C  13                  0.00001     2.17665   
 140. RY*(   8) C  13                  0.00001     1.96320   
 141. RY*(   9) C  13                  0.00000     1.93909   
 142. RY*(  10) C  13                  0.00000     4.05799   
 143. RY*(   1) H  14                  0.00119     0.68762   
 144. RY*(   1) H  15                  0.00126     0.64895   
 145. RY*(   1) H  16                  0.00131     0.66064   
 146. RY*(   1) N  17                  0.00502     0.90638   
 147. RY*(   2) N  17                  0.00184     1.29795   
 148. RY*(   3) N  17                  0.00078     1.29954   
 149. RY*(   4) N  17                  0.00047     1.49055   
 150. RY*(   5) N  17                  0.00023     1.95377   
 151. RY*(   6) N  17                  0.00007     2.00497   
 152. RY*(   7) N  17                  0.00005     2.14325   
 153. RY*(   8) N  17                  0.00003     2.16815   
 154. RY*(   9) N  17                  0.00001     2.07144   
 155. RY*(  10) N  17                  0.00001     3.76470   
 156. RY*(   1) H  18                  0.00209     0.70956   
 157. RY*(   1) C  19                  0.00245     1.11304   
 158. RY*(   2) C  19                  0.00154     1.51039   
 159. RY*(   3) C  19                  0.00108     0.66121   
 160. RY*(   4) C  19                  0.00059     1.22046   
 161. RY*(   5) C  19                  0.00008     1.57736   
 162. RY*(   6) C  19                  0.00001     1.99740   
 163. RY*(   7) C  19                  0.00000     4.12081   
 164. RY*(   8) C  19                  0.00001     1.24862   
 165. RY*(   9) C  19                  0.00000     1.98615   
 166. RY*(  10) C  19                  0.00001     2.16835   
 167. RY*(   1) H  20                  0.00388     0.70658   
 168. RY*(   1) H  21                  0.00106     0.65369   
 169. RY*(   1) H  22                  0.00246     0.68266   
 170. RY*(   1) H  23                  0.00074     0.62983   
 171. RY*(   1) O  24                  0.00302     1.17310   
 172. RY*(   2) O  24                  0.00079     1.50617   
 173. RY*(   3) O  24                  0.00043     1.49972   
 174. RY*(   4) O  24                  0.00015     2.13352   
 175. RY*(   5) O  24                  0.00006     1.94330   
 176. RY*(   6) O  24                  0.00003     2.12960   
 177. RY*(   7) O  24                  0.00001     1.83174   
 178. RY*(   8) O  24                  0.00000     1.88721   
 179. RY*(   9) O  24                  0.00001     2.80999   
 180. RY*(  10) O  24                  0.00000     2.11966   
 181. RY*(   1) C  25                  0.00279     0.77919   
 182. RY*(   2) C  25                  0.00095     0.91987   
 183. RY*(   3) C  25                  0.00055     1.33100   
 184. RY*(   4) C  25                  0.00008     1.38909   
 185. RY*(   5) C  25                  0.00006     1.58597   
 186. RY*(   6) C  25                  0.00001     2.01270   
 187. RY*(   7) C  25                  0.00000     1.77803   
 188. RY*(   8) C  25                  0.00001     1.82416   
 189. RY*(   9) C  25                  0.00001     4.09005   
 190. RY*(  10) C  25                  0.00001     1.89532   
 191. RY*(   1) H  26                  0.00070     0.63713   
 192. RY*(   1) H  27                  0.00158     0.65284   
 193. RY*(   1) H  28                  0.00086     0.64958   
 194. BD*(   1) H   1 - C   2          0.03416     0.45594   
 195. BD*(   1) C   2 - C   3          0.02108     0.56367   
 196. BD*(   1) C   2 - C  10          0.01670     0.56077   
 197. BD*(   2) C   2 - C  10          0.26804     0.01412  211(v),200(v),207(g),194(g)
 198. BD*(   1) C   3 - H   4          0.01405     0.46097   
 199. BD*(   1) C   3 - C   5          0.01508     0.56820   
 200. BD*(   2) C   3 - C   5          0.19866     0.00181  197(v),204(v),202(g)
 201. BD*(   1) C   5 - H   6          0.01783     0.44149   
 202. BD*(   1) C   5 - C   7          0.02809     0.52917   
 203. BD*(   1) C   7 - C   8          0.01847     0.55811   
 204. BD*(   2) C   7 - C   8          0.24405     0.03028  200(v),207(g),205(g),203(g)
                                                    93(g),223(v),89(g),224(v)
 205. BD*(   1) C   7 - C  25          0.03335     0.39891   
 206. BD*(   1) C   8 - H   9          0.01630     0.48699   
 207. BD*(   1) C   8 - C  10          0.26451    -0.10840  197(g),204(g),211(v),208(g)
                                                    206(g),194(v),205(v),209(v)
 208. BD*(   1) C  10 - C  11          0.06844     0.43559   
 209. BD*(   1) C  11 - C  12          0.09844     0.36194   
 210. BD*(   1) C  11 - O  24          0.01917     0.58801   
 211. BD*(   2) C  11 - O  24          0.14809     0.01846  197(v),207(v),212(v),118(g)
 212. BD*(   1) C  12 - C  13          0.01612     0.36898   
 213. BD*(   1) C  12 - N  17          0.02366     0.37520   
 214. BD*(   1) C  12 - H  18          0.02418     0.44644   
 215. BD*(   1) C  13 - H  14          0.00575     0.45713   
 216. BD*(   1) C  13 - H  15          0.00614     0.46231   
 217. BD*(   1) C  13 - H  16          0.00779     0.45008   
 218. BD*(   1) N  17 - C  19          0.00583     0.36832   
 219. BD*(   1) N  17 - H  20          0.02115     0.46773   
 220. BD*(   1) C  19 - H  21          0.01134     0.45053   
 221. BD*(   1) C  19 - H  22          0.02494     0.44861   
 222. BD*(   1) C  19 - H  23          0.00665     0.46229   
 223. BD*(   1) C  25 - H  26          0.00661     0.44167   
 224. BD*(   1) C  25 - H  27          0.01271     0.43442   
 225. BD*(   1) C  25 - H  28          0.00404     0.44724   
       -------------------------------
              Total Lewis   94.13824  ( 98.0607%)
        Valence non-Lewis    1.70139  (  1.7723%)
        Rydberg non-Lewis    0.16037  (  0.1670%)
       -------------------------------
            Total unit  1   96.00000  (100.0000%)
           Charge unit  1    0.00000
 1|1|UNPC-UNK|SP|RB3LYP|6-31G(d)|C11H15N1O1|PCUSER|17-Sep-2021|0||# B3L
 YP/6-31G(D) POP=NBO||3mmc||0,1|H|C,1,1.0849|C,2,1.3953,1,119.2121|H,3,
 1.0866,2,119.855,1,-0.0543,0|C,3,1.3933,2,120.2468,1,179.9185,0|H,5,1.
 0881,3,119.5796,2,180.0142,0|C,5,1.4047,3,120.9978,2,59.9935,0|C,7,1.3
 944,5,118.1085,3,0.0644,0|H,8,1.0859,7,120.5446,5,179.9743,0|C,2,1.402
 1,1,120.9163,3,179.9596,0|C,10,1.4985,2,123.1513,1,359.8496,0|C,11,1.5
 475,10,120.8779,2,3.9256,0|C,12,1.5409,11,108.6359,10,82.0681,0|H,13,1
 .0952,12,111.9761,11,301.2003,0|H,13,1.0935,12,109.3203,11,180.0309,0|
 H,13,1.0962,12,110.0469,11,61.2529,0|N,12,1.4578,11,112.377,10,203.594
 1,0|H,12,1.0963,11,109.7908,10,323.0628,0|C,17,1.4636,12,113.6746,11,7
 2.7037,0|H,17,1.0203,12,106.8192,11,313.5708,0|H,19,1.0967,17,109.3155
 ,12,65.2079,0|H,19,1.1032,17,114.6732,12,303.571,0|H,19,1.0949,17,108.
 9035,12,182.4495,0|O,11,1.2245,10,120.58,2,181.6693,0|C,7,1.5113,5,120
 .6305,3,180.2678,0|H,25,1.0973,7,111.3047,5,63.021,0|H,25,1.0969,7,111
 .3788,5,303.6458,0|H,25,1.094,7,111.305,5,183.2249,0||Version=IA32W-G0
 3RevC.01|State=1-A|HF=-557.8414248|RMSD=2.150e-005|Dipole=1.1599441,0.
 0323665,-0.0371483|PG=C01 [X(C11H15N1O1)]||@


 BULLDOZER: SOMEONE WHO SLEEPS THROUGH SPEECHES.
 Job cpu time:  0 days  0 hours  3 minutes  2.0 seconds.
 File lengths (MBytes):  RWF=     38 Int=      0 D2E=      0 Chk=      9 Scr=      1
 Normal termination of Gaussian 03 at Fri Sep 17 14:31:51 2021.
